LAMMPS (10 Mar 2016)
  using 1 OpenMP thread(s) per MPI task
Lattice spacing in x,y,z = 5.431 5.431 5.431
Created orthogonal box = (0 0 0) to (108.62 108.62 54.31)
  2 by 11 by 2 MPI processor grid
Created 32000 atoms
----------------------------------------------------------
Using Intel Package without Coprocessor.
Precision: single
----------------------------------------------------------
Neighbor list info ...
  1 neighbor list requests
  update every 1 steps, delay 5 steps, check yes
  max neighbors/atom: 2000, page size: 100000
  master list distance cutoff = 4.2
  ghost atom cutoff = 4.2
  binsize = 2.1, bins = 52 52 26
Setting up Verlet run ...
  Unit style  : metal
  Current step: 0
  Time step   : 0.001
Memory usage per processor = 6.07976 Mbytes
Step Temp E_pair E_mol TotEng Press 
       0         1000   -148173.43            0   -144037.23    7019.4575 
     100    430.64203   -145815.51            0   -144034.29   -14554.066 
     200    543.51504   -146282.09            0   -144034.01   -2111.0849 
     300    495.06165   -146081.16            0   -144033.49   -3960.9201 
     400    497.33999   -146090.35            0   -144033.26   -3086.0085 
     500    478.11314   -146010.61            0   -144033.04   -3182.5977 
     600    468.96692   -145972.45            0   -144032.71   -4948.4088 
     700    497.89159   -146091.91            0   -144032.54   -2380.5986 
     800     489.4044   -146056.68            0    -144032.4    -3819.358 
     900    489.35825   -146056.31            0   -144032.23   -3254.1927 
    1000    483.47849    -146031.8            0   -144032.04   -3982.7016 
    1100    489.36991   -146056.15            0   -144032.02     -3242.35 
    1200    487.56981    -146048.4            0   -144031.72   -3366.2885 
    1300    490.45189   -146060.24            0   -144031.63   -3645.2954 
    1400    487.55091   -146048.01            0   -144031.41   -3709.0909 
    1500    490.18243   -146058.62            0   -144031.13   -3468.2035 
    1600    488.40407      -146051            0   -144030.87   -3347.6914 
    1700    487.39638   -146046.72            0   -144030.75   -3567.5748 
    1800    488.30447   -146050.29            0   -144030.57   -3311.9821 
    1900    486.70547   -146043.39            0   -144030.28   -3421.7248 
    2000    487.27935   -146045.52            0   -144030.03     -3556.53 
    2100    490.06413   -146056.87            0   -144029.86   -3101.4407 
    2200    484.65547   -146034.34            0   -144029.71   -3588.4342 
    2300    489.20404    -146052.9            0   -144029.46   -3084.4883 
    2400    485.77473   -146038.48            0   -144029.22   -3486.9924 
    2500    488.82544   -146050.83            0   -144028.95   -3292.5889 
    2600    490.70068   -146058.42            0   -144028.79   -3129.0347 
    2700    483.34884   -146027.87            0   -144028.65   -3626.2552 
    2800     489.1523   -146051.77            0   -144028.54   -3145.6989 
    2900    486.62625   -146041.15            0   -144028.37   -3406.7912 
    3000    491.58975   -146061.53            0   -144028.21   -3610.9767 
    3100    489.96678   -146054.71            0   -144028.11   -3301.2163 
    3200    486.74331   -146041.18            0   -144027.92   -3326.1958 
    3300    489.93757   -146054.24            0   -144027.76   -3289.5372 
    3400    485.11741   -146034.05            0   -144027.51   -3547.6191 
    3500     490.8317   -146057.54            0   -144027.36   -3063.9163 
    3600    488.42659   -146047.34            0   -144027.11   -3458.3286 
    3700    488.68127   -146048.17            0   -144026.89    -3409.505 
    3800    488.26695   -146046.26            0   -144026.69   -2984.0104 
    3900    486.49833   -146038.73            0   -144026.47   -3475.5066 
    4000    488.76639   -146047.98            0   -144026.34   -3165.8346 
    4100    488.54486   -146046.92            0    -144026.2   -3259.8882 
    4200    484.50336   -146029.83            0   -144025.83   -3512.2154 
    4300    491.54647    -146058.8            0   -144025.67   -3161.7527 
    4400    488.58767   -146046.34            0   -144025.45   -3405.4119 
    4500    490.73776   -146055.08            0   -144025.29   -3123.8072 
    4600    484.15392   -146027.63            0   -144025.07   -3426.1864 
    4700    491.21414   -146056.62            0   -144024.87   -3061.8028 
    4800    484.96216   -146030.63            0   -144024.73   -3375.7398 
    4900    488.32831   -146044.38            0   -144024.56   -3247.0104 
    5000    489.04747   -146047.05            0   -144024.25   -3000.0073 
    5100    486.25325   -146035.32            0   -144024.08    -3418.686 
    5200    491.66994   -146057.52            0   -144023.87   -2908.4417 
    5300    484.68476   -146028.45            0   -144023.69   -3576.2159 
    5400    492.47278   -146060.52            0   -144023.56   -3002.4847 
    5500    487.29244   -146038.92            0   -144023.38    -3339.194 
    5600    489.97835   -146049.83            0   -144023.18    -3256.819 
    5700    492.62979   -146060.65            0   -144023.04   -3256.2415 
    5800    489.31072   -146046.72            0   -144022.84   -3350.8817 
    5900    491.08629   -146053.88            0   -144022.65   -3184.0349 
    6000    489.33487   -146046.42            0   -144022.44   -3175.6863 
    6100    486.44537   -146034.29            0   -144022.26   -3123.5964 
    6200     488.0234    -146040.7            0   -144022.14   -3232.2354 
    6300    489.79136   -146047.81            0   -144021.94   -3068.6505 
    6400    488.65874   -146042.96            0   -144021.77   -3274.0598 
    6500     489.1479   -146044.86            0   -144021.65   -3114.6874 
    6600    487.60281   -146038.33            0   -144021.51   -3262.1813 
    6700    487.58397   -146038.08            0   -144021.34   -3374.8604 
    6800    491.81577   -146055.38            0   -144021.13   -3133.6702 
    6900     491.1489   -146052.29            0    -144020.8   -3209.4254 
    7000    491.65954   -146054.19            0   -144020.59   -3155.4205 
    7100    489.71902   -146045.99            0   -144020.41   -3213.0431 
    7200    491.31415   -146052.38            0   -144020.21   -3147.4481 
    7300     491.7569   -146054.06            0   -144020.06   -3265.3041 
    7400    488.50068   -146040.47            0   -144019.93   -3267.7477 
    7500    490.05187    -146046.7            0   -144019.75   -3315.3558 
    7600    493.20375   -146059.55            0   -144019.56   -3193.5177 
    7700    486.11064    -146029.9            0   -144019.25   -3281.8102 
    7800    488.42184   -146039.24            0   -144019.04   -3117.4516 
    7900    486.82885   -146032.47            0   -144018.85    -3042.682 
    8000    489.77311   -146044.44            0   -144018.64   -3074.0828 
    8100    489.25304   -146042.21            0   -144018.56   -3121.3418 
    8200    486.00683   -146028.62            0    -144018.4   -3179.6885 
    8300    489.39712   -146042.52            0   -144018.28   -3144.0134 
    8400     492.2537   -146054.01            0   -144017.95   -2945.5458 
    8500     486.5898   -146030.46            0   -144017.83   -3191.2146 
    8600     486.8525   -146031.29            0   -144017.57    -3188.307 
    8700    487.89251   -146035.41            0   -144017.39   -3250.0564 
    8800    490.52443   -146046.14            0   -144017.24   -3110.6272 
    8900    488.70219   -146038.34            0   -144016.97    -3189.371 
    9000    491.24024   -146048.51            0   -144016.64   -2956.4301 
    9100    486.30969   -146027.97            0   -144016.49   -3308.9666 
    9200    491.23404   -146048.18            0   -144016.34   -2845.1005 
    9300    488.42076    -146036.3            0    -144016.1   -3393.7097 
    9400    490.37824   -146044.18            0   -144015.88   -3115.9394 
    9500    491.59154   -146049.02            0    -144015.7    -3116.463 
    9600     486.5137   -146027.72            0    -144015.4   -3268.5469 
    9700     490.5309   -146044.16            0   -144015.23    -3045.742 
    9800    488.62532   -146036.09            0   -144015.04   -3053.6949 
    9900    490.94537   -146045.59            0   -144014.95   -3287.5489 
   10000    487.93907   -146032.96            0   -144014.75   -3248.3416 
   10100    488.86013   -146036.52            0    -144014.5   -3078.4619 
   10200    490.01513    -146041.1            0   -144014.31   -3101.6737 
   10300     488.7249   -146035.68            0   -144014.22   -3340.7545 
   10400    491.74096   -146048.04            0   -144014.11   -3063.1475 
   10500     490.9688   -146044.66            0   -144013.92   -3393.3942 
   10600    490.64133   -146043.13            0   -144013.74   -3220.1498 
   10700    492.71467   -146051.49            0   -144013.52   -3252.6684 
   10800    490.71967   -146043.07            0   -144013.36   -3221.9442 
   10900    489.80713   -146039.13            0   -144013.19   -3255.7637 
   11000    491.68336   -146046.79            0   -144013.09    -3208.792 
   11100     488.2827   -146032.47            0   -144012.83   -3360.3737 
   11200     489.4207      -146037            0   -144012.66   -3251.1402 
   11300    489.71935   -146038.07            0   -144012.49    -3287.236 
   11400    491.55437   -146045.46            0    -144012.3   -3147.8194 
   11500    486.28176   -146023.54            0   -144012.19   -3271.0098 
   11600    489.16272   -146035.34            0   -144012.07   -3169.0152 
   11700    490.00482   -146038.62            0   -144011.87   -3238.7109 
   11800    489.25112   -146035.32            0   -144011.68   -3168.7743 
   11900    489.30224   -146035.48            0   -144011.63   -3084.6065 
   12000    490.69309    -146040.9            0    -144011.3   -3257.8362 
   12100    490.31379    -146039.1            0   -144011.06   -3297.2775 
   12200    491.48242   -146043.75            0   -144010.88   -3141.1501 
   12300    489.40784   -146035.05            0   -144010.76   -3393.6889 
   12400    490.64589   -146039.96            0   -144010.56   -3227.5368 
   12500    491.88305   -146044.97            0   -144010.44   -3140.1624 
   12600    489.25929   -146033.94            0   -144010.27    -3192.276 
   12700      490.731   -146039.87            0   -144010.11   -3034.9127 
   12800     490.8677   -146040.19            0   -144009.86   -2940.4035 
   12900    491.68319   -146043.38            0   -144009.69   -3376.0872 
   13000    489.96416   -146036.07            0   -144009.48   -3164.8119 
   13100    489.09734   -146032.24            0   -144009.24   -3072.0535 
   13200    488.10965   -146028.06            0   -144009.15   -3146.6428 
   13300    488.65555   -146030.05            0   -144008.88   -3142.4637 
   13400    491.24337   -146040.65            0   -144008.77   -3146.8188 
   13500    489.10395   -146031.68            0   -144008.66   -3163.2555 
   13600    487.23549   -146023.75            0   -144008.45   -3102.9162 
   13700    492.05964   -146043.56            0    -144008.3    -3070.053 
   13800    489.03745   -146030.84            0   -144008.09   -3078.7943 
   13900    490.92897   -146038.48            0    -144007.9   -3168.9596 
   14000     489.4131   -146032.04            0   -144007.73   -3262.8063 
   14100    491.12425   -146038.97            0   -144007.59   -3107.0119 
   14200    490.24092   -146035.06            0   -144007.33   -3286.2879 
   14300    493.81335   -146049.68            0   -144007.17   -2937.2554 
   14400    487.90677    -146025.1            0   -144007.02   -3392.6148 
   14500    490.22914   -146034.58            0   -144006.89   -3087.2025 
   14600    493.85635   -146049.43            0   -144006.75   -3158.4715 
   14700    491.12503   -146037.99            0    -144006.6   -3151.0996 
   14800    490.33149   -146034.53            0   -144006.43   -3161.9466 
   14900    492.43997   -146043.08            0   -144006.26   -3040.7135 
   15000    491.11007   -146037.35            0   -144006.03   -3308.2984 
   15100    491.25047   -146037.81            0   -144005.91   -3155.7596 
   15200    490.77808   -146035.71            0   -144005.75   -3171.2517 
   15300    490.90813   -146036.14            0   -144005.65   -3106.9207 
   15400    490.89388   -146035.88            0   -144005.44   -3114.5441 
   15500    491.90889   -146039.96            0   -144005.33   -3144.2734 
   15600     490.0555   -146032.14            0   -144005.18   -3189.4512 
   15700    488.31411   -146024.79            0   -144005.03   -3182.2835 
   15800    493.24995   -146045.01            0   -144004.83   -3014.8496 
   15900    490.44228    -146033.2            0   -144004.64   -3179.4983 
   16000    491.45836   -146037.18            0   -144004.41   -3029.5555 
   16100    489.65841   -146029.54            0   -144004.22   -3304.3997 
   16200    492.34037   -146040.43            0   -144004.02   -2975.3775 
   16300    489.81251   -146029.72            0   -144003.76   -3285.6228 
   16400    491.00339   -146034.45            0   -144003.56   -2895.8992 
   16500    488.48842   -146023.87            0   -144003.38   -3267.3004 
   16600    492.73496   -146041.24            0   -144003.19   -2918.6581 
   16700    486.17358   -146013.94            0   -144003.03   -3279.9401 
   16800    490.14254   -146030.24            0   -144002.91   -3226.6538 
   16900    491.72003   -146036.65            0    -144002.8   -2960.0988 
   17000    490.33505   -146030.67            0   -144002.55   -3258.5477 
   17100     490.3862   -146030.75            0   -144002.42   -3304.8035 
   17200    492.25303   -146038.26            0   -144002.21   -3193.6016 
   17300    492.11771   -146037.52            0   -144002.02   -3125.3018 
   17400    490.42189   -146030.28            0    -144001.8   -3375.1532 
   17500    492.20972   -146037.52            0   -144001.65   -2950.0309 
   17600    490.96094   -146032.18            0   -144001.47   -3302.3363 
   17700    491.03129   -146032.26            0   -144001.26   -3019.8932 
   17800    493.16257   -146040.93            0   -144001.11   -3122.0862 
   17900    490.31926   -146028.97            0   -144000.92   -3179.1096 
   18000    491.51683   -146033.77            0   -144000.76    -3267.839 
   18100     493.1474    -146040.4            0   -144000.65   -3050.1133 
   18200     491.4096   -146033.09            0   -144000.53   -3177.6497 
   18300    493.56567   -146041.89            0   -144000.41    -3076.685 
   18400    491.66364   -146033.82            0   -144000.21   -3026.1491 
   18500     491.8944   -146034.67            0    -144000.1    -3013.367 
   18600    489.62211   -146025.01            0   -143999.83   -3083.6593 
   18700    492.53189   -146036.84            0   -143999.63   -3033.2381 
   18800    491.17197   -146030.98            0    -143999.4   -3074.9731 
   18900    492.17615   -146034.94            0    -143999.2   -3036.4233 
   19000    492.92345   -146037.86            0   -143999.03   -2905.4364 
   19100    490.01384   -146025.76            0   -143998.97   -3100.0322 
   19200    491.97972   -146033.77            0   -143998.85   -2969.8183 
   19300    490.82788   -146028.79            0   -143998.63   -3135.4598 
   19400    489.91574   -146024.83            0   -143998.45   -3097.3778 
   19500    491.92391    -146032.9            0   -143998.21   -3077.4131 
   19600    492.32698   -146034.53            0   -143998.17   -3032.1454 
   19700    492.85861   -146036.58            0   -143998.02   -2986.4471 
   19800    493.36637   -146038.51            0   -143997.85   -3030.1333 
   19900    492.84146   -146036.21            0   -143997.73   -3080.1291 
   20000    492.51216   -146034.58            0   -143997.45    -3238.486 
   20100    494.29804   -146041.88            0   -143997.37   -2959.4396 
   20200    493.16544   -146036.99            0   -143997.16   -3231.5719 
   20300    495.83142   -146047.77            0   -143996.91   -2919.1139 
   20400    492.91628   -146035.53            0   -143996.73   -3186.6193 
   20500    493.02554   -146035.66            0   -143996.41    -3020.423 
   20600    490.21794   -146023.78            0   -143996.14   -2987.7881 
   20700    491.28149   -146028.01            0   -143995.97   -3017.6096 
   20800    495.79486   -146046.54            0   -143995.83   -3082.9954 
   20900    491.97391   -146030.59            0   -143995.69   -3112.0364 
   21000    492.46077   -146032.49            0   -143995.57    -3000.682 
   21100    491.09285   -146026.68            0   -143995.43   -3051.0036 
   21200    493.58006   -146036.65            0    -143995.1   -3015.1692 
   21300    494.79826   -146041.59            0   -143995.01   -3012.9832 
   21400    490.18749   -146022.35            0   -143994.84   -3429.3059 
   21500    494.54303   -146040.11            0   -143994.58   -2815.7263 
   21600    489.85333   -146020.61            0   -143994.48   -3257.7079 
   21700    496.88402   -146049.58            0   -143994.37    -2879.906 
   21800    491.87164   -146028.71            0   -143994.23   -3303.2126 
   21900     493.7447    -146036.3            0   -143994.08   -2951.1089 
   22000    492.96618   -146032.94            0   -143993.93   -3049.0834 
   22100    490.84685   -146024.06            0   -143993.82   -3027.9382 
   22200    490.78604   -146023.63            0   -143993.64   -3123.2296 
   22300    490.52994   -146022.39            0   -143993.47   -3107.2766 
   22400    493.39429   -146034.11            0   -143993.34   -2970.0845 
   22500    492.01898   -146028.25            0   -143993.16   -3117.4337 
   22600    494.22159   -146037.14            0   -143992.95   -3121.3104 
   22700    493.19833   -146032.78            0   -143992.82    -3004.003 
   22800    493.88384   -146035.45            0   -143992.64   -3303.3695 
   22900    492.45486   -146029.25            0   -143992.36   -3013.8778 
   23000    491.64176   -146025.74            0   -143992.22   -3231.5861 
   23100    491.93175   -146026.84            0   -143992.11   -3089.0614 
   23200    493.67858   -146033.96            0   -143992.01   -2978.3839 
   23300    490.38937   -146020.16            0   -143991.82   -3296.9191 
   23400    494.68211   -146037.68            0   -143991.58    -2850.684 
   23500    489.61641   -146016.65            0    -143991.5   -3264.1566 
   23600    491.08057   -146022.44            0   -143991.23   -3074.2563 
   23700    492.93921      -146030            0   -143991.11   -3199.3349 
   23800    492.85756   -146029.53            0   -143990.97   -3178.8349 
   23900    491.31134   -146022.85            0   -143990.69   -3122.2915 
   24000    494.32353   -146035.15            0   -143990.53   -3014.8398 
   24100    492.78678   -146028.62            0   -143990.36   -3032.0563 
   24200    490.02407   -146016.97            0   -143990.14   -3310.3627 
   24300     498.1436    -146050.5            0   -143990.08   -2918.3425 
   24400    489.14172   -146013.07            0   -143989.89   -3122.2698 
   24500     491.9817   -146024.71            0   -143989.77   -3164.1607 
   24600    491.26418    -146021.5            0   -143989.53   -3096.8897 
   24700    493.97784   -146032.57            0   -143989.38   -3070.2572 
   24800    493.03304   -146028.43            0   -143989.15   -3068.3889 
   24900      491.241   -146020.85            0   -143988.98   -3075.6861 
   25000    491.58184   -146022.07            0   -143988.79   -3009.9283 
   25100    490.94598   -146019.23            0   -143988.58   -3197.2905 
   25200    489.23819   -146012.05            0   -143988.47   -3081.9815 
   25300     491.5163   -146021.34            0   -143988.34   -2983.4122 
   25400    492.88449   -146026.93            0   -143988.26   -3011.0978 
   25500    493.23236   -146028.17            0   -143988.06   -3092.2186 
   25600    493.76815   -146030.25            0   -143987.93   -3109.0867 
   25700    494.61827   -146033.52            0   -143987.68   -3101.3275 
   25800    492.44424   -146024.32            0   -143987.47   -3317.6384 
   25900    498.13654   -146047.77            0   -143987.38   -2916.3217 
   26000    491.93715   -146021.88            0   -143987.13   -3162.2312 
   26100    491.98249   -146021.92            0   -143986.99   -3009.7411 
   26200    490.47091   -146015.47            0   -143986.79   -3113.8697 
   26300    496.47116    -146040.2            0    -143986.7   -3044.6453 
   26400    493.43766   -146027.48            0   -143986.53   -2957.3396 
   26500     490.7255   -146016.08            0   -143986.34   -3197.5039 
   26600    493.72789   -146028.34            0   -143986.19   -3004.1367 
   26700     493.6923   -146027.88            0   -143985.87   -3061.2004 
   26800    491.91741    -146020.4            0   -143985.73   -3063.3696 
   26900     494.1117   -146029.34            0    -143985.6   -3132.4412 
   27000    490.53896    -146014.4            0   -143985.43   -3026.2389 
   27100    491.01535   -146016.18            0   -143985.24   -2911.9664 
   27200    490.49939   -146013.95            0   -143985.15   -3045.8156 
   27300    491.60395   -146018.36            0   -143984.99   -3104.0232 
   27400    495.06898   -146032.55            0   -143984.84   -3077.5324 
   27500    491.70493   -146018.48            0   -143984.69   -3186.4245 
   27600    495.28553   -146033.12            0   -143984.52   -3091.4463 
   27700    491.86204    -146018.7            0   -143984.27   -3063.0339 
   27800    491.37415   -146016.52            0    -143984.1   -3058.3904 
   27900     494.0658   -146027.46            0   -143983.91   -3032.2901 
   28000    491.57369      -146017            0   -143983.76   -3064.7159 
   28100    494.65469   -146029.61            0   -143983.62   -2786.4379 
   28200    492.36251      -146020            0    -143983.5   -3091.4799 
   28300    491.19768   -146014.91            0   -143983.22   -2959.5251 
   28400    494.51395   -146028.53            0   -143983.13   -2891.4778 
   28500    490.60026   -146012.26            0   -143983.04   -3168.3415 
   28600    493.47842   -146024.06            0   -143982.94   -3080.6086 
   28700     493.9277   -146025.76            0   -143982.78   -3144.1056 
   28800    495.75461   -146033.19            0   -143982.65   -2995.0701 
   28900    492.85681   -146020.99            0   -143982.44   -3043.5266 
   29000    495.35645   -146031.18            0   -143982.29   -3102.3185 
   29100    492.40302   -146018.84            0   -143982.17   -3177.2271 
   29200    494.88859   -146028.87            0   -143981.91   -2935.8273 
   29300    493.49843   -146022.97            0   -143981.76   -2983.1929 
   29400    492.37732   -146018.26            0   -143981.69   -3116.6383 
   29500    493.12598   -146021.24            0   -143981.58   -2848.1566 
   29600     491.4642   -146014.18            0   -143981.39   -2972.1932 
   29700    492.64452   -146018.92            0   -143981.25   -2967.8542 
   29800    492.90712   -146019.89            0   -143981.13    -2982.795 
   29900    493.16714   -146020.81            0   -143980.98   -2941.5524 
   30000    492.40984   -146017.46            0   -143980.76   -3006.4221 
   30100    493.03993   -146019.93            0   -143980.62   -2854.8121 
   30200    493.57361   -146022.02            0    -143980.5   -3038.6784 
   30300    492.88505   -146019.01            0   -143980.34     -3081.47 
   30400    496.37248   -146033.31            0   -143980.22   -2856.4605 
   30500    494.48133   -146025.36            0   -143980.09   -2924.2114 
   30600    492.40319   -146016.62            0   -143979.94   -3076.1938 
   30700    495.97216   -146031.25            0   -143979.82   -2922.4105 
   30800    493.07305   -146019.03            0   -143979.59   -2919.5668 
   30900    495.60406   -146029.38            0   -143979.46   -3046.2244 
   31000    492.81776   -146017.67            0   -143979.28   -3136.8528 
   31100    493.23441   -146019.27            0   -143979.15   -2967.6438 
   31200     491.3352    -146011.3            0   -143979.04   -2981.4605 
   31300    496.89882   -146034.16            0   -143978.89   -2867.9872 
   31400    494.16873   -146022.68            0    -143978.7   -3042.4695 
   31500    492.35174   -146014.92            0   -143978.46   -3008.2647 
   31600    492.92731   -146017.19            0   -143978.34    -2841.478 
   31700    494.89218   -146025.18            0   -143978.21   -2956.7924 
   31800    493.61706   -146019.82            0   -143978.12   -3039.1908 
   31900    494.82806   -146024.68            0   -143977.97   -2980.6704 
   32000    496.11336   -146029.64            0   -143977.62   -2801.8907 
   32100    492.67811   -146015.22            0   -143977.41   -3128.0601 
   32200     495.1895   -146025.45            0   -143977.25   -2980.7083 
   32300    494.79877   -146023.62            0   -143977.04   -2925.4144 
   32400    494.24912   -146021.21            0    -143976.9   -2879.4912 
   32500     493.4895   -146017.89            0   -143976.72   -3065.9855 
   32600     494.6335   -146022.39            0   -143976.49   -2779.5914 
   32700    493.63054   -146018.07            0   -143976.32   -2989.3836 
   32800    494.21193   -146020.21            0   -143976.06   -2926.0254 
   32900    494.86366   -146022.79            0   -143975.93   -2932.3061 
   33000    493.68382   -146017.73            0   -143975.76   -3016.4089 
   33100    494.17548   -146019.66            0   -143975.66   -3110.4249 
   33200    496.44251   -146028.83            0   -143975.45   -2951.7686 
   33300    494.65133   -146021.26            0   -143975.28   -2896.9033 
   33400    491.90103   -146009.67            0   -143975.07   -3231.3378 
   33500    498.44621   -146036.58            0   -143974.91   -2773.5744 
   33600    490.94698   -146005.38            0   -143974.72   -3164.3051 
   33700    492.78169   -146012.86            0   -143974.62   -3040.2818 
   33800    495.42447   -146023.67            0   -143974.49   -3007.8105 
   33900    493.96939   -146017.49            0   -143974.34   -3237.6685 
   34000    494.98407   -146021.49            0   -143974.14   -2911.0061 
   34100    494.49719   -146019.33            0      -143974   -2985.5907 
   34200    492.23725   -146009.81            0   -143973.82   -2967.3355 
   34300    496.51244   -146027.42            0   -143973.75   -3140.0858 
   34400    495.23343   -146021.97            0   -143973.58   -3033.9055 
   34500    493.24394    -146013.6            0   -143973.45   -3172.3119 
   34600    495.18321    -146021.5            0   -143973.33   -2906.4064 
   34700    494.28838   -146017.67            0    -143973.2   -3041.7409 
   34800    492.88606   -146011.67            0      -143973   -3112.9098 
   34900     494.0969   -146016.49            0   -143972.81   -2985.2674 
   35000    496.34437   -146025.58            0    -143972.6   -2925.6337 
   35100    494.14165   -146016.45            0   -143972.59   -3160.6037 
   35200    494.71944   -146018.58            0   -143972.33   -2909.7105 
   35300    492.20988   -146008.08            0    -143972.2   -2901.1251 
   35400     494.2326   -146016.34            0    -143972.1   -3096.5755 
   35500    494.80866   -146018.59            0   -143971.96   -3108.5369 
   35600     495.8965   -146022.88            0   -143971.76   -2979.5102 
   35700    494.15884   -146015.51            0   -143971.58   -3106.3748 
   35800    496.93664   -146026.85            0   -143971.42   -2998.9361 
   35900    492.39274   -146007.76            0   -143971.13   -3055.7565 
   36000    497.90142   -146030.44            0   -143971.02   -2975.1005 
   36100    493.61836   -146012.55            0   -143970.85   -3029.1245 
   36200    490.82913   -146000.78            0   -143970.62    -2965.205 
   36300    492.98424   -146009.61            0   -143970.53   -3174.9201 
   36400    493.50532   -146011.53            0    -143970.3   -2970.1987 
   36500      489.953   -145996.69            0   -143970.15   -3017.6201 
   36600    495.79627    -146020.7            0   -143969.99   -3040.0919 
   36700    490.76221   -145999.71            0   -143969.82   -3244.2776 
   36800    495.84355   -146020.66            0   -143969.76    -2943.643 
   36900    493.77446   -146011.89            0   -143969.54    -3200.602 
   37000    492.19444   -146005.17            0   -143969.36   -2959.9155 
   37100    494.01441   -146012.54            0    -143969.2   -3085.7966 
   37200    496.21568    -146021.4            0   -143968.96   -2985.1103 
   37300    493.05604   -146008.13            0   -143968.75   -3141.3692 
   37400    493.91665   -146011.47            0   -143968.53   -3112.8843 
   37500     496.9066   -146023.64            0   -143968.33   -3097.4621 
   37600    494.98096   -146015.52            0   -143968.18   -3193.7229 
   37700    494.25217   -146012.37            0   -143968.04   -3115.2256 
   37800    496.77332   -146022.66            0   -143967.91    -3019.644 
   37900    496.23612   -146020.34            0   -143967.81   -3213.2734 
   38000    495.82408   -146018.52            0   -143967.69   -3105.8755 
   38100    494.79987   -146014.03            0   -143967.44   -3020.3621 
   38200    495.03942   -146014.87            0   -143967.29   -3039.2938 
   38300    493.85216   -146009.75            0   -143967.08   -3146.5299 
   38400    493.18652   -146006.78            0   -143966.86   -3194.0447 
   38500    497.29445   -146023.56            0   -143966.65   -2979.8241 
   38600    494.37891    -146011.4            0   -143966.55   -3172.3245 
   38700    496.09524   -146018.35            0    -143966.4    -3009.914 
   38800    495.00253   -146013.71            0   -143966.29   -2990.2457 
   38900    495.21878   -146014.43            0    -143966.1   -3391.2023 
   39000    499.67769   -146032.58            0   -143965.81   -2910.7009 
   39100    494.69885   -146011.84            0   -143965.67   -3208.6946 
   39200    497.36564   -146022.67            0   -143965.47   -3112.9201 
   39300    493.56403   -146006.81            0   -143965.33   -2997.1738 
   39400    497.29206   -146022.16            0   -143965.26   -3054.2218 
   39500    494.52429   -146010.54            0   -143965.09   -3295.1209 
   39600    495.39069   -146014.06            0   -143965.03   -3057.5815 
   39700    497.74278   -146023.54            0   -143964.78   -2912.8616 
   39800    494.66235    -146010.6            0   -143964.58     -3101.57 
   39900    497.15134   -146020.75            0   -143964.43   -3025.8136 
   40000    495.81397   -146015.06            0   -143964.28   -3156.6673 
   40100    494.70808   -146010.26            0   -143964.05   -2965.3326 
   40200    495.25776   -146012.29            0   -143963.81   -3104.2132 
   40300    495.76968   -146014.28            0   -143963.68   -3320.4629 
   40400    496.28143   -146016.13            0   -143963.41   -3013.2222 
   40500    497.95282   -146022.85            0   -143963.22   -3166.9427 
   40600    494.55487    -146008.6            0   -143963.02   -3110.1691 
   40700    496.79818   -146017.74            0   -143962.88   -3283.1852 
   40800    500.18416   -146031.61            0   -143962.75   -3086.5226 
   40900    495.56683   -146012.31            0   -143962.54   -3241.1371 
   41000     496.3138   -146015.15            0    -143962.3   -3201.2192 
   41100    496.07041   -146014.04            0    -143962.2   -2982.1254 
   41200     492.8726   -146000.67            0   -143962.05   -3293.0165 
   41300    496.76842   -146016.61            0   -143961.88   -3117.6134 
   41400    495.89957   -146012.76            0   -143961.62   -3160.0169 
   41500    495.77315   -146012.06            0   -143961.44   -3057.2795 
   41600    494.26813   -146005.62            0   -143961.23   -3187.2949 
   41700    496.61811   -146015.17            0   -143961.06   -3214.2336 
   41800    494.76077   -146007.34            0   -143960.91   -3206.0417 
   41900    495.48643   -146010.23            0    -143960.8   -3189.0992 
   42000    498.90191   -146024.22            0   -143960.66   -3264.6224 
   42100    497.00443   -146016.23            0   -143960.52   -3126.4818 
   42200    496.50857   -146013.97            0   -143960.32   -3375.7422 
   42300    496.99937   -146015.84            0   -143960.16    -2759.347 
   42400    493.67823   -146001.88            0   -143959.93     -3233.65 
   42500    492.59949   -145997.13            0   -143959.65   -3218.4304 
   42600    494.67019   -146005.53            0   -143959.48   -3151.3974 
   42700    494.72041   -146005.54            0   -143959.28    -3256.093 
   42800    496.18076    -146011.4            0    -143959.1   -3359.9727 
   42900    497.86359   -146018.22            0   -143958.96   -3259.9422 
   43000    494.96003   -146006.05            0   -143958.79   -3354.5174 
   43100    495.13031   -146006.62            0   -143958.66   -3124.3009 
   43200    495.52204   -146008.18            0   -143958.61   -3290.2821 
   43300    496.22996   -146010.89            0   -143958.39   -3164.9207 
   43400    495.72131   -146008.64            0   -143958.24    -3181.086 
   43500    498.40783   -146019.68            0   -143958.17   -3279.6277 
   43600    498.93672   -146021.67            0   -143957.97   -3209.8287 
   43700    496.31754   -146010.63            0   -143957.77   -3260.9314 
   43800    495.51654   -146007.01            0   -143957.46   -3204.8843 
   43900    494.64603   -146003.17            0   -143957.22   -3185.0633 
   44000    495.72894    -146007.5            0   -143957.07   -3232.2049 
   44100    495.77837   -146007.51            0   -143956.87   -3063.4794 
   44200    497.39855   -146014.04            0   -143956.71   -3094.6409 
   44300    496.05021   -146008.34            0   -143956.58   -3153.2556 
   44400    498.14481   -146016.81            0   -143956.38   -3069.6694 
   44500    495.81073    -146006.9            0   -143956.13   -3285.1709 
   44600     498.5995    -146018.3            0      -143956   -2932.3334 
   44700    494.34344   -146000.45            0   -143955.75   -3182.5243 
   44800    494.44861    -146000.7            0   -143955.56   -3044.3064 
   44900    494.30282   -145999.93            0    -143955.4   -3140.0001 
   45000    497.52065   -146013.05            0   -143955.21   -2791.9827 
   45100    494.94422   -146002.28            0    -143955.1   -3297.5988 
   45200    498.35621   -146016.21            0   -143954.92   -3167.9577 
   45300    496.97425   -146010.29            0   -143954.71   -3178.0879 
   45400    495.45501   -146003.74            0   -143954.44   -3150.1673 
   45500    496.24494   -146006.88            0   -143954.31   -3054.5857 
   45600    494.34997   -145998.89            0   -143954.17   -3088.9795 
   45700    496.68712   -146008.46            0   -143954.07   -2952.6843 
   45800    496.72548   -146008.48            0   -143953.93   -3197.3146 
   45900    494.01095   -145996.92            0   -143953.59    -2969.341 
   46000     496.6969   -146007.95            0   -143953.52   -2938.2904 
   46100    496.05502   -146005.22            0   -143953.44   -3111.2765 
   46200    497.85253   -146012.46            0   -143953.24    -3112.924 
   46300    493.32233   -145993.44            0   -143952.97   -3209.0647 
   46400    499.29061   -146018.05            0   -143952.89   -2989.2702 
   46500    497.15628   -146008.93            0    -143952.6   -3225.2692 
   46600    492.16087      -145988            0   -143952.33   -3198.9709 
   46700    495.45387   -146001.41            0   -143952.11   -3035.7941 
   46800    496.08279   -146003.89            0      -143952   -3188.4725 
   46900    495.31631   -146000.48            0   -143951.76   -3091.4001 
   47000    498.38514   -146013.03            0   -143951.62   -3115.5892 
   47100    496.17712   -146003.74            0   -143951.45   -3081.1554 
   47200    494.85448   -145997.99            0   -143951.18   -3215.8955 
   47300    500.49951   -146021.12            0   -143950.96   -3134.0621 
   47400    496.47924   -146004.17            0   -143950.63   -3242.7226 
   47500    498.29036   -146011.47            0   -143950.44   -2924.0409 
   47600     496.5319   -146003.97            0   -143950.22   -3169.9893 
   47700    497.19842   -146006.52            0   -143950.01   -3077.4491 
   47800    497.99091    -146009.6            0   -143949.82   -3063.9934 
   47900    497.88888   -146008.95            0   -143949.59   -3192.5711 
   48000    497.51174   -146007.21            0    -143949.4   -2996.5085 
   48100    494.35529   -145993.93            0   -143949.18   -3176.4672 
   48200    499.18559   -146013.77            0   -143949.04   -3080.0928 
   48300    495.16546   -145996.99            0   -143948.89   -3263.0561 
   48400    496.05702   -146000.48            0   -143948.69   -3032.9952 
   48500     496.9025   -146003.92            0   -143948.63   -3171.4007 
   48600    497.07186   -146004.46            0   -143948.48   -3214.3745 
   48700    497.65653   -146006.66            0   -143948.25   -2990.6018 
   48800    494.71597   -145994.36            0   -143948.12     -3284.58 
   48900    496.84046   -146002.94            0   -143947.91   -2888.1954 
   49000    495.17153    -145995.8            0   -143947.67   -3195.2649 
   49100    494.77672   -145994.08            0   -143947.58   -3296.6476 
   49200    498.85162   -146010.77            0   -143947.42   -2928.2295 
   49300    496.40816   -146000.49            0   -143947.25   -3252.5989 
   49400    499.80126   -146014.36            0   -143947.09   -2978.1448 
   49500    497.27546   -146003.74            0   -143946.91    -3181.295 
   49600    498.01046   -146006.69            0   -143946.82   -2979.4307 
   49700    495.64892   -145996.75            0   -143946.65   -3182.3325 
   49800    499.10258   -146010.92            0   -143946.54   -2959.6888 
   49900    497.71323   -146005.03            0   -143946.39   -3077.3567 
   50000    498.95707   -146009.96            0   -143946.18    -2988.455 
   50100    493.95427   -145989.08            0   -143945.98   -3181.9429 
   50200    496.29165    -145998.6            0   -143945.84   -2960.3772 
   50300    496.31609   -145998.38            0   -143945.52   -3047.3516 
   50400    497.44464   -146002.86            0   -143945.33   -3083.1314 
   50500    499.34574   -146010.45            0   -143945.06   -3106.1424 
   50600    497.44164   -146002.42            0    -143944.9   -3064.6429 
   50700    499.23028   -146009.64            0   -143944.73   -3189.6097 
   50800     497.1996      -146001            0   -143944.49   -2965.7727 
   50900    496.19892   -145996.65            0   -143944.28   -3029.0161 
   51000    494.87625   -145991.02            0   -143944.11   -3100.8748 
   51100    499.42596   -146009.68            0   -143943.96   -2986.3232 
   51200    494.79347   -145990.24            0   -143943.68   -3203.3514 
   51300      498.426   -146005.06            0   -143943.48   -2977.3049 
   51400    498.72727   -146006.16            0   -143943.33   -3079.7551 
   51500      496.091   -145995.05            0   -143943.12   -3211.2911 
   51600    498.80141   -146006.13            0   -143942.99    -2907.112 
   51700    497.13483   -145999.14            0   -143942.89   -3214.0991 
   51800    499.95044   -146010.55            0   -143942.66   -2837.0955 
   51900    496.32201   -145995.21            0   -143942.32    -3269.862 
   52000      497.397   -145999.46            0   -143942.13    -3021.006 
   52100    498.08264   -146002.16            0   -143941.99   -3053.4727 
   52200    496.92429   -145997.21            0   -143941.84   -3145.6956 
   52300    501.20153   -146014.75            0   -143941.68   -3045.4328 
   52400    499.15238   -146005.99            0    -143941.4   -3060.8792 
   52500      497.102   -145997.36            0   -143941.25   -3213.4093 
   52600    496.96414   -145996.61            0   -143941.07   -3146.6467 
   52700    500.68845    -146011.8            0   -143940.85   -3019.7457 
   52800    497.65495   -145999.03            0   -143940.63   -3141.8947 
   52900    498.64989   -146002.95            0   -143940.44   -3193.2319 
   53000    497.01712   -145995.99            0   -143940.23   -3335.6375 
   53100    499.83423   -146007.43            0   -143940.02   -3008.6877 
   53200    501.50651   -146014.22            0   -143939.89   -3160.7516 
   53300    499.87094   -146007.23            0   -143939.66     -3160.71 
   53400    497.08512   -145995.45            0   -143939.41    -3418.075 
   53500    500.51129   -146009.38            0   -143939.17   -3061.5255 
   53600    497.74119   -145997.77            0   -143939.02   -3130.9371 
   53700    498.50351   -146000.71            0    -143938.8   -3092.3135 
   53800    497.90965   -145998.06            0   -143938.61   -3145.5475 
   53900    498.77788   -146001.51            0   -143938.47   -3087.8184 
   54000     499.3217   -146003.54            0   -143938.25   -2933.7268 
   54100    496.49914   -145991.71            0    -143938.1   -3240.6998 
   54200    498.95638   -146001.73            0   -143937.95   -3018.7966 
   54300    496.53468   -145991.59            0   -143937.82   -3024.2462 
   54400    500.01227   -146005.74            0    -143937.6   -3055.2705 
   54500    499.47762   -146003.32            0   -143937.38   -3087.5976 
   54600    499.33166   -146002.57            0   -143937.24   -3288.4509 
   54700    496.33267   -145989.96            0   -143937.03   -3235.2145 
   54800    501.42033   -146010.74            0   -143936.76   -3150.9859 
   54900    498.40141   -145998.07            0   -143936.58   -2822.2686 
   55000    495.44916   -145985.64            0   -143936.36   -3351.8207 
   55100    500.67726    -146007.1            0    -143936.2   -3106.3626 
   55200    497.96433   -145995.73            0   -143936.05   -3140.5968 
   55300    496.87132   -145990.98            0   -143935.82   -3209.6522 
   55400    499.58381   -146001.97            0    -143935.6   -3049.3808 
   55500    497.77837   -145994.34            0   -143935.43    -3234.911 
   55600    499.20241   -146000.08            0   -143935.28   -3168.9372 
   55700    500.01095   -146003.25            0   -143935.11    -3036.764 
   55800    496.61955   -145989.03            0   -143934.91   -3100.9571 
   55900    497.51448   -145992.46            0   -143934.65   -3272.2904 
   56000     498.1436   -145994.83            0   -143934.41   -3051.1856 
   56100    499.22012   -145999.14            0   -143934.26   -3275.0249 
   56200    500.39549    -146003.8            0   -143934.06   -3203.3644 
   56300    499.97706   -146001.85            0   -143933.84   -3274.9027 
   56400    499.16182   -145998.36            0   -143933.73   -3238.8322 
   56500    499.72461   -146000.46            0   -143933.51   -3072.2546 
   56600    502.04587   -146009.91            0   -143933.35   -2954.5686 
   56700    493.54061    -145974.4            0   -143933.02    -3383.643 
   56800     498.1855    -145993.5            0   -143932.91   -2847.9544 
   56900    497.46177    -145990.2            0    -143932.6   -3220.4325 
   57000    501.53627   -146006.93            0   -143932.48    -2983.372 
   57100    498.45552   -145994.07            0   -143932.36   -3208.9239 
   57200    499.92785   -145999.85            0   -143932.05   -3083.1167 
   57300    497.87479   -145991.14            0   -143931.83   -2997.3008 
   57400    497.80688   -145990.72            0   -143931.69   -3103.1067 
   57500    496.51445   -145985.13            0   -143931.45   -3342.5146 
   57600    501.68241   -146006.24            0   -143931.18    -3120.875 
   57700    498.96405   -145994.71            0    -143930.9   -3269.8027 
   57800    499.64445   -145997.27            0   -143930.64   -3068.4356 
   57900    499.91781   -145998.26            0    -143930.5   -3212.5824 
   58000     500.6321   -146000.97            0   -143930.26   -3162.3288 
   58100    501.03541    -146002.5            0   -143930.12   -2996.3765 
   58200    498.61984   -145992.31            0   -143929.92    -3257.728 
   58300    499.32916   -145995.08            0   -143929.76   -3175.1065 
   58400    499.97059   -145997.61            0   -143929.64   -2922.7815 
   58500    497.83585   -145988.71            0   -143929.56   -3307.9732 
   58600    496.20533   -145981.73            0   -143929.33   -3107.6722 
   58700     500.6072   -145999.77            0   -143929.16   -3175.3958 
   58800    501.22298   -146002.12            0   -143928.96   -3137.9494 
   58900     497.8635   -145987.99            0   -143928.73   -3220.8409 
   59000    501.15231   -146001.35            0   -143928.48   -3278.3433 
   59100    501.09023   -146000.97            0   -143928.36   -3159.4993 
   59200     502.0371   -146004.78            0   -143928.26   -3329.1853 
   59300    500.31978   -145997.46            0   -143928.04   -3219.3748 
   59400    499.98807   -145995.86            0   -143927.81   -3038.8738 
   59500    499.02472   -145991.69            0   -143927.62   -3274.1173 
   59600    500.98456   -145999.62            0   -143927.45   -3026.9734 
   59700    496.24609   -145979.88            0   -143927.31    -3220.036 
   59800     500.4385   -145996.99            0   -143927.08   -2995.5093 
   59900    496.88059   -145982.04            0   -143926.85   -3112.8546 
   60000    499.06196   -145990.77            0   -143926.55   -3114.3512 
   60100    498.88724   -145989.86            0   -143926.37   -3181.0149 
   60200    499.82281    -145993.5            0   -143926.13   -2972.3453 
   60300     499.0276   -145989.93            0   -143925.85   -3289.9231 
   60400    502.41315   -146003.85            0   -143925.77   -3005.4671 
   60500    497.56147   -145983.67            0   -143925.66   -3162.5722 
   60600    500.96355   -145997.46            0   -143925.38   -3084.4563 
   60700    498.89873   -145988.68            0   -143925.14   -3107.2758 
   60800    500.43747   -145994.87            0   -143924.97    -2973.938 
   60900    497.04699   -145980.62            0   -143924.74   -3181.5468 
   61000    500.91614   -145996.47            0   -143924.59   -3067.9468 
   61100    496.57715   -145978.31            0   -143924.37   -3205.5098 
   61200    500.53543   -145994.51            0   -143924.19    -3149.532 
   61300    499.14469   -145988.55            0   -143923.99   -3252.9604 
   61400    498.04787   -145983.66            0   -143923.64   -3123.1093 
   61500    501.29868   -145996.95            0   -143923.48   -3177.4692 
   61600    500.73378   -145994.45            0   -143923.32   -3214.7372 
   61700    502.16734   -146000.18            0   -143923.12    -3063.613 
   61800    500.49613   -145993.06            0   -143922.91   -3173.6932 
   61900    501.04568   -145995.17            0   -143922.74   -3160.6171 
   62000    497.72543   -145981.22            0   -143922.53   -3244.0608 
   62100    501.07465   -145994.91            0   -143922.37    -3081.039 
   62200    500.34533   -145991.69            0   -143922.16   -3276.7171 
   62300    498.80143   -145985.06            0   -143921.92   -3204.8368 
   62400    501.20719    -145994.8            0    -143921.7   -3154.3852 
   62500    504.45905   -146008.03            0   -143921.49   -3324.4476 
   62600    497.73201   -145979.89            0   -143921.17   -3253.3518 
   62700    502.75746   -146000.46            0   -143920.96   -3277.2552 
   62800    502.09446   -145997.48            0   -143920.72   -3161.3232 
   62900    496.88805   -145975.76            0   -143920.53   -3307.1162 
   63000    498.67919   -145982.98            0   -143920.35   -3256.7225 
   63100    501.24713   -145993.38            0   -143920.12   -3157.1343 
   63200     503.2316   -146001.42            0   -143919.96   -3167.7312 
   63300     500.2733   -145988.96            0   -143919.74   -3362.3007 
   63400    502.41458   -145997.62            0   -143919.53   -3234.2553 
   63500    502.43292   -145997.54            0   -143919.38   -3202.8414 
   63600    502.02443   -145995.68            0   -143919.21    -3313.344 
   63700    499.84703   -145986.47            0      -143919   -3360.4607 
   63800    500.77121   -145990.18            0   -143918.89   -3295.9509 
   63900    503.93635   -146003.17            0   -143918.79     -3229.96 
   64000    502.04477   -145995.16            0   -143918.61   -3236.7385 
   64100    499.46701   -145984.23            0   -143918.34   -3342.0482 
   64200    501.89289   -145994.07            0   -143918.14   -3238.1766 
   64300    501.33906   -145991.57            0   -143917.94   -3318.3229 
   64400    501.99073    -145994.1            0   -143917.77   -3270.6729 
   64500     503.1398   -145998.72            0   -143917.63   -3264.8696 
   64600    501.40555   -145991.28            0   -143917.37   -3270.2878 
   64700    501.98758   -145993.46            0   -143917.14   -3292.1197 
   64800    501.09752   -145989.68            0   -143917.04   -3246.3193 
   64900    502.18571   -145993.97            0   -143916.83   -3241.6893 
   65000    500.39813   -145986.33            0   -143916.59   -3178.0745 
   65100    500.98392   -145988.68            0   -143916.51   -3106.0682 
   65200    501.88564   -145992.28            0   -143916.38   -3237.0303 
   65300    502.24993   -145993.71            0   -143916.31   -3135.2497 
   65400    499.42346   -145981.82            0   -143916.11   -3233.2203 
   65500    504.20544   -146001.45            0   -143915.96   -3282.0616 
   65600    501.28828   -145989.17            0   -143915.74   -3209.9157 
   65700    501.74429   -145990.83            0   -143915.52   -3099.8375 
   65800    497.37815   -145972.55            0    -143915.3   -3300.0785 
   65900    501.46301   -145989.27            0   -143915.12   -3095.9739 
   66000    498.80545   -145978.19            0   -143915.03    -3295.334 
   66100    504.85825   -146003.04            0   -143914.85   -3127.8192 
   66200    500.50649   -145984.77            0   -143914.58   -3280.6407 
   66300    500.74199   -145985.56            0    -143914.4   -3305.8761 
   66400    502.67832   -145993.31            0   -143914.13   -3180.3337 
   66500    503.78919   -145997.64            0   -143913.87   -3154.4918 
   66600    501.22378   -145986.85            0   -143913.69   -3289.9584 
   66700    501.11978   -145986.21            0   -143913.48    -3361.959 
   66800    503.15432   -145994.47            0   -143913.32   -3044.2466 
   66900    501.32859   -145986.65            0   -143913.06   -3182.9655 
   67000    501.03845   -145985.22            0   -143912.83   -3155.1499 
   67100    499.51494    -145978.8            0   -143912.71   -3267.8969 
   67200    500.57237   -145982.96            0   -143912.49   -3103.5414 
   67300    500.32959   -145981.81            0   -143912.35   -3357.8548 
   67400    503.19463   -145993.42            0   -143912.11   -3238.2126 
   67500    501.44234   -145985.99            0   -143911.93   -3269.2994 
   67600    501.95523   -145987.98            0   -143911.79   -3220.8824 
   67700    496.62523   -145965.62            0   -143911.48   -3331.1742 
   67800    504.90997   -145999.75            0   -143911.34   -3045.4861 
   67900    500.75696   -145982.35            0   -143911.12   -3289.5683 
   68000     501.2934   -145984.33            0   -143910.88   -3145.5223 
   68100    499.67402    -145977.5            0   -143910.75   -3230.4637 
   68200    497.18927   -145966.96            0   -143910.49   -3279.3317 
   68300    499.98351    -145978.4            0   -143910.37    -3211.166 
   68400    500.58287   -145980.73            0   -143910.23    -3295.365 
   68500    502.86765   -145989.92            0   -143909.96   -3279.1797 
   68600    500.51389   -145979.91            0   -143909.68   -3321.5657 
   68700    504.39721   -145995.71            0   -143909.43   -3238.1903 
   68800    500.03923   -145977.53            0   -143909.27   -3293.3028 
   68900    501.65579   -145984.05            0   -143909.11   -3196.7797 
   69000    499.62857    -145975.4            0   -143908.84   -3369.1056 
   69100    502.06095   -145985.24            0   -143908.62   -3305.4057 
   69200    502.66906   -145987.55            0   -143908.41   -3202.2099 
   69300    500.91201   -145980.12            0   -143908.25   -3282.6668 
   69400    503.68132   -145991.47            0   -143908.15   -3243.7172 
   69500    500.14288   -145976.63            0   -143907.94    -3257.763 
   69600    501.68088   -145982.73            0   -143907.68   -3238.1535 
   69700    504.64212   -145994.77            0   -143907.47   -3091.0541 
   69800    500.76883   -145978.58            0   -143907.31   -3360.3795 
   69900    503.21465   -145988.51            0   -143907.12   -3093.6057 
   70000    501.01115   -145979.15            0   -143906.87   -3250.6896 
   70100    502.05395   -145983.25            0   -143906.66   -3168.2864 
   70200    501.85758   -145982.28            0    -143906.5   -3189.2627 
   70300     500.6694   -145977.21            0   -143906.34   -3259.6628 
   70400    503.70813    -145989.6            0   -143906.17   -3082.5195 
   70500    501.30377   -145979.42            0   -143905.93   -3300.9983 
   70600     500.6863    -145976.6            0   -143905.66    -3164.287 
   70700    501.27778   -145978.88            0    -143905.5   -3168.0704 
   70800     500.3447   -145974.93            0    -143905.4   -3025.9562 
   70900    500.77282   -145976.52            0   -143905.23   -3170.2024 
   71000    500.54067   -145975.33            0      -143905    -3187.174 
   71100    505.43027   -145995.42            0   -143904.86   -2987.0537 
   71200    497.26502   -145961.41            0   -143904.62   -3435.9046 
   71300    505.56696   -145995.37            0   -143904.25   -2973.2645 
   71400    501.26953   -145977.42            0   -143904.07   -3273.8816 
   71500     501.8016   -145979.43            0   -143903.88   -3194.0857 
   71600    503.38769   -145985.86            0   -143903.75     -3191.62 
   71700    503.57946   -145986.38            0   -143903.48   -3119.0573 
   71800    499.99868   -145971.28            0   -143903.19   -3052.5684 
   71900    499.98612   -145971.06            0   -143903.02   -3144.6564 
   72000    501.77993   -145978.35            0   -143902.89   -3056.1303 
   72100    498.76881    -145965.7            0   -143902.69   -3182.8639 
   72200    502.30479    -145980.1            0   -143902.47   -3118.2198 
   72300    501.75728   -145977.72            0   -143902.35   -3168.7697 
   72400    502.70373   -145981.46            0   -143902.18   -3085.7179 
   72500    501.83439    -145977.6            0   -143901.92   -3194.2379 
   72600    503.25245   -145983.27            0   -143901.72   -3111.1037 
   72700    503.33214   -145983.42            0   -143901.54    -3063.416 
   72800    506.29488   -145995.46            0   -143901.33   -3217.1369 
   72900    504.10283   -145986.28            0   -143901.21   -3261.5122 
   73000    504.43929   -145987.51            0   -143901.05   -3137.6219 
   73100     499.9353   -145968.75            0   -143900.92   -3188.8289 
   73200    501.81538   -145976.34            0   -143900.74   -2983.5446 
   73300    502.56631   -145979.26            0   -143900.54   -3183.2528 
   73400    504.18065   -145985.75            0   -143900.36   -2831.0022 
   73500    498.58952   -145962.43            0   -143900.17   -3214.5639 
   73600    504.84787   -145988.15            0   -143900.01   -3180.4988 
   73700    504.89024   -145988.11            0   -143899.78   -3008.5288 
   73800    503.90505   -145983.82            0   -143899.57   -3095.6261 
   73900    504.18913   -145984.79            0   -143899.36   -3269.9261 
   74000    501.03382   -145971.52            0   -143899.15   -3296.7774 
   74100    504.07102   -145983.88            0   -143898.94   -3135.0926 
   74200      502.144   -145975.77            0    -143898.8   -3212.9725 
   74300    503.58589   -145981.55            0   -143898.62   -3029.8688 
   74400    499.99234   -145966.47            0   -143898.41   -3191.5512 
   74500    502.39741   -145976.22            0   -143898.21   -3172.6399 
   74600    502.38818   -145975.94            0   -143897.97   -2998.7939 
   74700    504.80489   -145985.79            0   -143897.82   -3286.6085 
   74800    500.70027    -145968.6            0   -143897.61   -3233.4811 
   74900    505.91696   -145990.03            0   -143897.45   -3190.8372 
   75000    505.84278   -145989.41            0   -143897.14   -3118.7606 
   75100    498.60269   -145959.26            0   -143896.94   -3257.0767 
   75200    504.23008   -145982.45            0   -143896.86    -3046.874 
   75300    502.24522   -145973.95            0   -143896.56   -3215.9901 
   75400    504.79976   -145984.34            0   -143896.39   -3056.7973 
   75500    501.90803    -145972.1            0   -143896.11   -3228.2372 
   75600    503.24655   -145977.43            0   -143895.91   -3036.3905 
   75700    501.13646   -145968.48            0   -143895.68    -3245.788 
   75800    506.68803   -145991.21            0   -143895.45   -2994.4692 
   75900    502.51328   -145973.85            0   -143895.35   -3213.9258 
   76000    502.91957   -145975.25            0   -143895.08   -2938.8426 
   76100     500.4012   -145964.71            0   -143894.96   -3296.7825 
   76200    505.01718   -145983.65            0    -143894.8   -3067.5714 
   76300     503.2679   -145976.27            0   -143894.65    -2930.639 
   76400    501.70355   -145969.66            0   -143894.51   -3451.1035 
   76500    503.03097   -145974.93            0   -143894.29   -3081.2659 
   76600    507.48922   -145993.17            0    -143894.1   -3002.4599 
   76700    501.62582   -145968.75            0   -143893.93   -3239.4754 
   76800    501.91629   -145969.72            0   -143893.69   -3149.2678 
   76900    501.60028   -145968.17            0   -143893.45   -3172.6324 
   77000    503.75926   -145976.83            0   -143893.19   -3085.5849 
   77100    503.91092   -145977.35            0   -143893.08   -3192.2565 
   77200     503.5947   -145975.83            0   -143892.87    -3135.728 
   77300    504.50924   -145979.48            0   -143892.73   -3168.2959 
   77400    505.49109   -145983.41            0    -143892.6   -3244.8929 
   77500    503.35069   -145974.26            0    -143892.3   -3292.5761 
   77600    503.46568   -145974.55            0   -143892.12     -3211.08 
   77700    502.28418    -145969.4            0   -143891.85   -3095.4638 
   77800    502.20147   -145968.94            0   -143891.74   -3181.1079 
   77900    504.84135   -145979.67            0   -143891.54   -3018.3021 
   78000    503.44366   -145973.64            0    -143891.3   -3323.7149 
   78100    504.52942   -145977.98            0   -143891.15   -3141.6209 
   78200    499.68093   -145957.63            0   -143890.85   -3288.9167 
   78300    505.60042   -145981.98            0   -143890.71   -3304.4034 
   78400    504.07226    -145975.4            0   -143890.46   -3111.6287 
   78500    502.30874   -145967.89            0   -143890.24   -3323.5354 
   78600    500.21359   -145958.99            0   -143890.01   -3291.6227 
   78700    504.03082   -145974.57            0    -143889.8   -3276.7813 
   78800    507.70755   -145989.59            0   -143889.61   -3014.7343 
   78900    501.49677    -145963.7            0   -143889.41   -3381.2703 
   79000    505.12655   -145978.47            0   -143889.16   -3186.4605 
   79100    501.87914   -145964.81            0   -143888.94   -3270.9244 
   79200    505.39775   -145979.27            0   -143888.85   -3235.0436 
   79300    502.63367   -145967.68            0   -143888.69   -3152.1578 
   79400    505.61682   -145979.86            0   -143888.53   -3156.8938 
   79500    503.50606   -145970.88            0   -143888.28   -3092.7515 
   79600    501.68913   -145963.11            0   -143888.03   -3111.9401 
   79700    503.23934   -145969.35            0   -143887.85   -3091.3129 
   79800    504.73265   -145975.35            0   -143887.68   -3103.0474 
   79900    503.63304   -145970.55            0   -143887.43   -3106.9363 
   80000    504.48684   -145973.87            0   -143887.21   -3134.5051 
   80100    500.92301   -145958.89            0   -143886.97   -3263.4953 
   80200    505.48564   -145977.54            0   -143886.75   -3056.8186 
   80300    504.81973   -145974.58            0   -143886.54   -3243.9656 
   80400    505.33189   -145976.56            0   -143886.41   -3112.8379 
   80500    507.36654   -145984.81            0   -143886.24   -3095.6645 
   80600    501.76443   -145961.37            0   -143885.97   -3146.7982 
   80700    506.32951   -145980.09            0   -143885.81   -3134.0721 
   80800    504.34929   -145971.61            0   -143885.53   -3094.1456 
   80900    504.54536   -145972.24            0   -143885.34   -3193.4719 
   81000    505.75391   -145977.03            0   -143885.14     -3114.05 
   81100    504.90415   -145973.38            0      -143885   -3084.6521 
   81200    504.61423   -145972.04            0   -143884.86   -3213.3152 
   81300    505.00934   -145973.46            0   -143884.64   -3169.6011 
   81400    504.13247   -145969.54            0   -143884.35   -3192.8454 
   81500    503.30496   -145965.98            0   -143884.21   -3029.3566 
   81600     506.0043   -145977.01            0   -143884.07    -3168.589 
   81700    506.24752   -145977.85            0   -143883.91   -3146.7664 
   81800     505.9368   -145976.34            0   -143883.69   -3057.5343 
   81900    508.20793   -145985.46            0   -143883.41   -3195.0596 
   82000    505.22779   -145973.06            0   -143883.33   -3320.9291 
   82100    504.69543   -145970.69            0   -143883.17   -3086.2272 
   82200    505.96565   -145975.83            0   -143883.06   -3275.2987 
   82300    507.43033   -145981.69            0   -143882.86    -3079.406 
   82400    505.75731   -145974.71            0    -143882.8   -3197.6612 
   82500    505.47808    -145973.3            0   -143882.55   -3051.4687 
   82600    504.35646   -145968.46            0   -143882.34   -3242.0466 
   82700    506.41455   -145976.81            0   -143882.18   -2862.0169 
   82800    504.00368   -145966.72            0   -143882.06   -3167.2181 
   82900    503.16279   -145963.03            0   -143881.86   -3109.7935 
   83000    505.90429   -145974.29            0   -143881.77   -3295.5844 
   83100    504.08286   -145966.59            0    -143881.6   -3059.5696 
   83200    505.91979   -145974.02            0   -143881.44   -3033.2992 
   83300    503.59615   -145964.25            0   -143881.28    -3137.293 
   83400    504.84319    -145969.2            0   -143881.07   -2970.6169 
   83500    504.78536   -145968.84            0   -143880.95   -3335.7595 
   83600    505.96982   -145973.53            0   -143880.74   -3040.2164 
   83700    507.14281   -145978.12            0   -143880.48   -2950.0464 
   83800    504.68505    -145967.8            0   -143880.32   -3462.1462 
   83900    506.95453   -145976.94            0   -143880.08   -2791.3962 
   84000    502.54991    -145958.6            0   -143879.96    -3273.764 
   84100    504.72065   -145967.33            0   -143879.71   -3030.2598 
   84200    504.03918   -145964.33            0   -143879.53   -3176.6595 
   84300    505.15773   -145968.83            0    -143879.4     -3023.97 
   84400     507.6092   -145978.83            0   -143879.26   -3138.9811 
   84500    505.29818   -145969.05            0   -143879.04   -3108.7762 
   84600    507.91241   -145979.59            0   -143878.77   -3029.4378 
   84700    506.19295   -145972.31            0   -143878.59    -3169.713 
   84800    508.31047   -145980.85            0   -143878.38   -3066.4428 
   84900    504.30468   -145964.21            0    -143878.3   -3161.3996 
   85000    504.05548   -145962.94            0   -143878.07   -3171.9565 
   85100    506.39786   -145972.55            0   -143877.99   -2937.8218 
   85200    507.13467   -145975.36            0   -143877.75   -3209.9276 
   85300    503.24151   -145959.09            0   -143877.58   -3028.1384 
   85400    505.23716   -145967.21            0   -143877.45   -3086.4844 
   85500    506.14645   -145970.74            0   -143877.21   -3054.9376 
   85600     504.5292   -145963.85            0   -143877.02   -2950.4755 
   85700     504.4994   -145963.47            0   -143876.77   -3021.1547 
   85800    503.50979   -145959.23            0   -143876.62   -3078.2095 
   85900    504.53653   -145963.26            0    -143876.4    -2990.243 
   86000    503.91016    -145960.5            0   -143876.23   -3029.3459 
   86100    508.89081   -145980.92            0   -143876.05   -3190.1283 
   86200    507.58163   -145975.19            0   -143875.73   -3109.3152 
   86300    506.23587   -145969.42            0   -143875.53   -3062.4206 
   86400    506.01941    -145968.3            0    -143875.3   -3270.8769 
   86500    505.17554   -145964.57            0   -143875.07   -3071.3332 
   86600    503.98119   -145959.49            0   -143874.92   -3143.4036 
   86700    505.98346   -145967.55            0   -143874.71   -2833.5269 
   86800     506.2184   -145968.37            0   -143874.55   -3214.5214 
   86900    507.95153   -145975.33            0   -143874.34   -2917.3669 
   87000    504.40359    -145960.4            0   -143874.09   -3160.5847 
   87100    505.27226   -145963.91            0   -143874.01   -3099.2703 
   87200    506.35924   -145968.28            0   -143873.88    -2952.437 
   87300    506.79867   -145969.91            0   -143873.69   -3079.0548 
   87400    506.69571   -145969.28            0   -143873.49   -3045.2751 
   87500    503.94665   -145957.76            0   -143873.34   -3110.6567 
   87600    505.63102   -145964.55            0   -143873.16   -2934.7669 
   87700    508.59392   -145976.55            0    -143872.9   -3042.1746 
   87800    505.76758   -145964.79            0   -143872.84   -3129.3793 
   87900    506.04382    -145965.8            0    -143872.7   -3001.8588 
   88000    504.85028   -145960.69            0   -143872.53      -3062.8 
   88100    504.69897   -145959.87            0   -143872.33   -3043.5399 
   88200    504.29879    -145958.1            0   -143872.22   -2946.8934 
   88300    505.78633   -145964.08            0   -143872.05   -2958.3553 
   88400    505.66685   -145963.42            0   -143871.88   -3142.3407 
   88500    507.14062   -145969.21            0   -143871.58   -2919.6307 
   88600    505.58393   -145962.58            0   -143871.39   -3154.2861 
   88700    506.17738   -145964.85            0    -143871.2   -3002.6226 
   88800     506.5446   -145966.17            0   -143871.01   -3126.9934 
   88900    508.37306   -145973.61            0   -143870.88   -3106.0927 
   89000    507.90261   -145971.45            0   -143870.66   -3120.5125 
   89100    507.85089   -145971.07            0    -143870.5    -2994.035 
   89200    504.57874   -145957.37            0   -143870.34   -3054.9032 
   89300    504.71879   -145957.73            0   -143870.12    -3216.763 
   89400    507.10062   -145967.39            0   -143869.92   -3013.4538 
   89500    506.63342   -145965.25            0   -143869.71   -3205.8966 
   89600    504.08973   -145954.38            0   -143869.36   -3218.7199 
   89700    507.89972   -145969.91            0   -143869.13   -3010.1935 
   89800    505.63098   -145960.39            0   -143869.01   -3025.3646 
   89900    504.17209   -145954.22            0   -143868.87   -3096.2334 
   90000    506.25203   -145962.72            0   -143868.76   -3225.7801 
   90100    507.46292   -145967.46            0    -143868.5   -3010.6591 
   90200    506.42536   -145962.99            0   -143868.31   -3194.5468 
   90300    508.73852   -145972.36            0   -143868.12   -3070.5815 
   90400    507.57977   -145967.37            0   -143867.92   -3105.1041 
   90500     503.0773   -145948.52            0   -143867.69   -3116.1242 
   90600    507.10607   -145965.01            0   -143867.52   -3144.6487 
   90700    503.55447   -145950.11            0   -143867.31   -2916.1449 
   90800    505.03963   -145956.06            0   -143867.11   -2920.8819 
   90900    504.92984   -145955.46            0   -143866.97    -3228.289 
   91000    505.00493   -145955.54            0   -143866.74   -3114.0898 
   91100    507.37011   -145965.14            0   -143866.56   -3031.4673 
   91200    505.35683   -145956.59            0   -143866.34   -3120.9248 
   91300    506.90379   -145962.82            0   -143866.16   -3016.1071 
   91400    506.66288   -145961.58            0   -143865.92   -3097.5312 
   91500    502.11582   -145942.52            0   -143865.67   -3089.2102 
   91600    503.08267   -145946.42            0   -143865.57   -2994.8402 
   91700    509.65013   -145973.43            0   -143865.42   -3035.4519 
   91800    507.38376    -145963.8            0   -143865.16   -3206.4971 
   91900     505.3845   -145955.19            0   -143864.82   -3118.7861 
   92000     505.0315    -145953.6            0   -143864.69   -3241.6717 
   92100    508.47927   -145967.69            0   -143864.52   -3083.4131 
   92200    507.34804   -145962.89            0    -143864.4   -3096.4904 
   92300    503.17868   -145945.35            0    -143864.1    -3260.081 
   92400    505.58782   -145955.11            0    -143863.9   -3065.2255 
   92500    508.02133   -145965.04            0   -143863.76   -3142.2608 
   92600    508.32178   -145966.18            0   -143863.67     -3102.34 
   92700    506.79086   -145959.66            0   -143863.48   -3220.6131 
   92800     508.1164   -145964.96            0    -143863.3   -3086.0858 
   92900    507.92014   -145963.92            0   -143863.06   -3104.5807 
   93000    505.90918   -145955.46            0   -143862.92   -3260.7461 
   93100    508.71752   -145967.02            0   -143862.86   -3263.6161 
   93200    507.97376   -145963.74            0   -143862.66   -3274.7447 
   93300    507.83836   -145963.11            0   -143862.59   -3113.7621 
   93400    505.62157    -145953.7            0   -143862.35   -3205.3982 
   93500    507.77796   -145962.42            0   -143862.15   -3097.1503 
   93600    503.84271    -145945.9            0   -143861.91   -3300.0504 
   93700    509.85493   -145970.63            0   -143861.77   -3065.4447 
   93800    507.75525   -145961.79            0   -143861.62   -3487.0982 
   93900    504.89172   -145949.73            0    -143861.4   -3222.9243 
   94000     507.0343   -145958.42            0   -143861.23    -3139.659 
   94100    507.19566   -145958.98            0   -143861.12   -3309.9512 
   94200    510.44085   -145972.21            0   -143860.93   -3274.2884 
   94300     509.3893   -145967.76            0   -143860.82   -3188.5242 
   94400    507.39957   -145959.36            0   -143860.65    -3303.179 
   94500    509.26476   -145966.87            0   -143860.45   -3213.2551 
   94600    504.56541   -145947.17            0   -143860.18   -3122.4112 
   94700    507.02703   -145957.18            0   -143860.02     -3241.01 
   94800    507.56312   -145959.22            0   -143859.84   -3020.4131 
   94900    504.10416   -145944.71            0   -143859.64   -3418.0208 
   95000     507.7484   -145959.68            0   -143859.53   -3202.0021 
   95100      507.455    -145958.3            0   -143859.37   -3218.2546 
   95200    509.35832   -145966.05            0   -143859.25   -3290.6976 
   95300    506.86853   -145955.67            0   -143859.16   -3259.8499 
   95400    508.46261   -145962.13            0   -143859.03   -3237.1151 
   95500    506.29034   -145952.93            0   -143858.82   -3341.9652 
   95600    509.03314   -145964.05            0   -143858.58   -3127.4783 
   95700    506.73712   -145954.35            0   -143858.39   -3179.8768 
   95800    507.05643   -145955.48            0   -143858.19   -3204.6284 
   95900    507.44067   -145956.98            0    -143858.1   -3119.6745 
   96000    508.09657   -145959.59            0      -143858   -3155.4241 
   96100    505.84475   -145950.15            0   -143857.87   -3075.4873 
   96200    507.80694   -145958.14            0   -143857.75   -3442.8672 
   96300    510.54155    -145969.3            0    -143857.6   -3019.1945 
   96400    504.96998   -145946.03            0   -143857.38   -3257.3309 
   96500    507.52321   -145956.45            0   -143857.23   -3314.7604 
   96600    506.65963   -145952.78            0   -143857.14   -3093.9539 
   96700    508.33818   -145959.68            0    -143857.1   -3170.5366 
   96800    506.64447   -145952.47            0   -143856.89   -3112.7887 
   96900    509.15666   -145962.61            0   -143856.64   -3206.1153 
   97000    508.33906   -145959.07            0   -143856.48   -3033.2498 
   97100    507.65228   -145956.14            0   -143856.39   -3120.9896 
   97200     507.4184   -145954.92            0   -143856.13   -3196.0861 
   97300    506.08556   -145949.24            0   -143855.97   -3067.4511 
   97400    506.58094   -145951.11            0   -143855.79   -3210.9206 
   97500    509.27794   -145962.13            0   -143855.66   -2995.6968 
   97600    505.55288   -145946.41            0   -143855.35   -3278.0862 
   97700    509.30808   -145961.76            0   -143855.16   -3052.6808 
   97800    507.79317   -145955.32            0   -143854.99   -3104.0862 
   97900    508.50118   -145958.07            0   -143854.81   -2901.9344 
   98000    505.33456   -145944.75            0   -143854.59   -3251.0015 
   98100    507.68474   -145954.33            0   -143854.45   -3116.9575 
   98200    510.22736   -145964.67            0   -143854.27   -2996.6316 
   98300    506.59834   -145949.48            0   -143854.09   -3254.0593 
   98400    508.53399   -145957.29            0    -143853.9   -3129.6224 
   98500    506.14372   -145947.19            0   -143853.68   -3082.3912 
   98600    506.88234   -145950.04            0   -143853.48   -2964.9953 
   98700     509.4181   -145960.43            0   -143853.37   -3161.0354 
   98800    508.40664   -145956.04            0   -143853.17   -3239.6543 
   98900    506.92286   -145949.74            0   -143853.01   -3082.2733 
   99000    506.67136   -145948.56            0   -143852.87     -3312.29 
   99100    509.41856   -145959.76            0   -143852.71   -2994.9128 
   99200    508.00658   -145953.77            0   -143852.56   -3095.5069 
   99300    509.78486   -145960.85            0   -143852.28   -3005.7651 
   99400    508.29779   -145954.51            0   -143852.09   -3174.7701 
   99500    509.89568   -145960.96            0   -143851.93   -3036.8187 
   99600    508.34713   -145954.34            0   -143851.72   -3236.3132 
   99700     508.8745   -145956.36            0   -143851.55   -3219.2216 
   99800    510.74604   -145963.85            0   -143851.31    -3029.776 
   99900    508.91019   -145956.09            0   -143851.14   -3156.7415 
  100000    507.57661   -145950.33            0   -143850.89    -3197.985 
  100100    510.79014   -145963.46            0   -143850.73   -2971.8602 
  100200    505.16452   -145939.99            0   -143850.53   -3212.5223 
  100300    508.51102   -145953.63            0   -143850.32   -3100.7405 
  100400    510.89352   -145963.43            0   -143850.27   -3208.7268 
  100500    507.67311   -145949.91            0   -143850.07   -3196.3033 
  100600    509.98741   -145959.24            0   -143849.83   -2975.7232 
  100700    510.08132   -145959.48            0   -143849.68   -3281.5976 
  100800    510.26181   -145960.05            0   -143849.51   -3246.7351 
  100900    509.98853   -145958.74            0   -143849.33   -3151.7229 
  101000    509.20954   -145955.28            0   -143849.09   -3074.9461 
  101100    510.31597   -145959.68            0   -143848.91    -3233.528 
  101200    505.57068   -145939.84            0    -143848.7   -3289.2742 
  101300     512.0974   -145966.69            0   -143848.55   -3150.0514 
  101400    509.26781   -145954.91            0   -143848.48    -3314.373 
  101500    510.33528   -145959.13            0   -143848.28   -3206.4239 
  101600    508.73586    -145952.3            0   -143848.07   -3211.8856 
  101700    507.67615   -145947.68            0   -143847.83    -3267.643 
  101800    510.06522   -145957.38            0   -143847.65    -3246.228 
  101900    507.27307   -145945.58            0    -143847.4   -3121.6048 
  102000    506.59347    -145942.6            0   -143847.23   -3308.2137 
  102100    509.96393   -145956.41            0    -143847.1   -3136.3563 
  102200    507.54165   -145946.25            0   -143846.96   -3206.1356 
  102300     505.2139   -145936.37            0    -143846.7   -3239.7145 
  102400    505.93742   -145939.17            0   -143846.52   -3051.9712 
  102500    506.03553   -145939.34            0   -143846.27   -3243.0625 
  102600    507.24668   -145944.22            0   -143846.15   -3109.1388 
  102700    512.42439   -145965.45            0   -143845.96   -3088.3858 
  102800    506.30446      -145940            0   -143845.82    -3220.835 
  102900    507.91156   -145946.52            0    -143845.7   -3242.3986 
  103000    509.22598   -145951.78            0   -143845.52   -3149.9272 
  103100    510.54625   -145957.09            0   -143845.37   -3238.0623 
  103200    511.46339   -145960.72            0   -143845.21   -3167.3436 
  103300    508.66338   -145948.79            0   -143844.86   -3305.0426 
  103400    508.69745   -145948.79            0   -143844.72   -3296.5851 
  103500    509.70275   -145952.75            0   -143844.52   -3193.7021 
  103600    506.96817   -145941.19            0   -143844.27   -3390.4175 
  103700    511.52399   -145959.86            0    -143844.1   -3067.2102 
  103800    509.02051   -145949.38            0   -143843.97   -3355.9598 
  103900    507.38004   -145942.41            0   -143843.78   -3189.6481 
  104000    510.11667   -145953.55            0   -143843.61   -3225.2143 
  104100     506.4012   -145938.03            0   -143843.46   -3277.6452 
  104200    509.78911   -145951.87            0   -143843.29   -3208.1461 
  104300    510.85374   -145956.16            0   -143843.17    -3375.586 
  104400    507.40879   -145941.68            0   -143842.94   -3346.7707 
  104500    509.03388   -145948.35            0   -143842.89   -3219.0464 
  104600    507.43052   -145941.56            0   -143842.73   -3406.6955 
  104700    510.05985   -145952.32            0   -143842.62   -3090.4529 
  104800    507.91517   -145943.26            0   -143842.42   -3357.3594 
  104900    512.13744   -145960.54            0   -143842.24   -3212.3928 
  105000    507.56927    -145941.5            0   -143842.09   -3356.5937 
  105100    510.13118   -145951.93            0   -143841.92   -3207.7501 
  105200    506.87682   -145938.17            0   -143841.63   -3256.1159 
  105300    511.37018   -145956.51            0   -143841.38   -3273.0362 
  105400    507.77824   -145941.53            0   -143841.26   -3296.6155 
[...]
  975000    792.62606   -144690.86            0    -141412.4   -3680.6254 
  975100    790.72524   -144682.52            0   -141411.93   -3510.5171 
  975200    789.73694   -144678.06            0   -141411.55   -3340.6506 
  975300    787.56267   -144668.73            0   -141411.21   -3714.6652 
  975400    792.13535   -144687.14            0   -141410.71   -3522.9993 
  975500    792.46956   -144687.98            0   -141410.17   -3436.0647 
  975600    787.59362   -144667.18            0   -141409.54   -3477.1501 
  975700    785.34957   -144657.46            0   -141409.11   -3510.3994 
  975800    792.43844   -144686.28            0    -141408.6   -3401.7261 
  975900    792.33019   -144685.53            0   -141408.29    -3314.254 
  976000    789.78171   -144674.72            0   -141408.03   -3440.7731 
  976100    794.13957   -144692.33            0   -141407.61   -3491.3312 
  976200    794.49721    -144693.5            0    -141407.3   -3574.4396 
  976300    793.34142   -144688.38            0   -141406.96   -3323.0813 
  976400    789.40639   -144671.72            0   -141406.59   -3823.0845 
  976500    791.76429   -144681.06            0   -141406.16   -3346.3467 
  976600    785.88301   -144656.23            0   -141405.67   -3754.8441 
  976700    792.39264    -144682.8            0   -141405.31   -3473.4729 
  976800    793.01837   -144685.02            0   -141404.94   -3255.6558 
  976900    788.02799      -144664            0   -141404.56   -3726.0505 
  977000    787.44109    -144661.1            0   -141404.09   -3239.6274 
  977100    793.66096   -144686.51            0   -141403.78   -3385.8496 
  977200     790.3131   -144672.13            0   -141403.24   -3766.3098 
  977300    788.38432   -144663.75            0   -141402.84   -3324.6982 
  977400     795.2147   -144691.62            0   -141402.46   -3462.0087 
  977500    794.32665   -144687.45            0   -141401.96   -3775.8758 
  977600    791.15453   -144673.92            0   -141401.55   -3478.6505 
  977700    789.85359   -144668.05            0   -141401.06   -3562.6128 
  977800    791.55603    -144674.7            0   -141400.67   -3342.7868 
  977900    791.77448   -144675.31            0   -141400.37   -3685.1619 
  978000    792.49128   -144677.83            0   -141399.93   -3213.6683 
  978100    790.64218   -144669.96            0   -141399.71   -3384.2207 
  978200    790.45079   -144668.79            0   -141399.33   -3843.6699 
  978300    799.70644   -144706.66            0   -141398.92   -3348.4546 
  978400    791.49788   -144672.32            0   -141398.53   -3729.0679 
  978500    789.30669   -144662.89            0   -141398.16   -3272.5857 
  978600    788.15335   -144657.51            0   -141397.56   -3683.1107 
  978700    794.73975   -144684.39            0    -141397.2   -3458.2939 
  978800    791.13396      -144669            0   -141396.71   -3453.1538 
  978900    791.00507   -144668.07            0   -141396.32   -3705.9313 
  979000    791.97315   -144671.67            0   -141395.91   -3682.0586 
  979100    794.31548   -144681.02            0   -141395.58    -3441.579 
  979200    797.89122   -144695.53            0   -141395.29   -3752.3505 
  979300    790.51281    -144664.6            0   -141394.89   -3940.4348 
  979400    795.24385    -144683.6            0   -141394.32   -3416.5436 
  979500    793.32266    -144675.4            0   -141394.06    -3641.043 
  979600    792.18109   -144670.16            0   -141393.55   -3444.1777 
  979700    797.39906   -144691.28            0   -141393.08   -3741.8715 
  979800    793.02038   -144672.55            0   -141392.47   -3631.0459 
  979900    791.74958   -144666.85            0   -141392.02   -3790.2942 
  980000    792.73659   -144670.43            0   -141391.51   -3887.6986 
  980100    792.24257   -144668.06            0   -141391.19   -3591.9811 
  980200    791.14881   -144663.12            0   -141390.77   -3708.4311 
  980300     790.4701   -144659.79            0   -141390.25   -3531.8394 
  980400    791.62613   -144664.17            0   -141389.85   -3722.7364 
  980500    793.02514   -144669.52            0   -141389.41   -3529.2279 
  980600    790.89202   -144660.22            0   -141388.94   -3584.5968 
  980700     792.9703    -144668.5            0   -141388.62   -3715.1833 
  980800     795.1717    -144677.2            0   -141388.21   -3455.2267 
  980900    789.13786   -144651.76            0   -141387.73   -4058.3252 
  981000    794.80921    -144674.8            0   -141387.31   -3500.9552 
  981100    794.88684   -144674.91            0    -141387.1   -3724.3372 
  981200     796.5322   -144681.12            0   -141386.51   -3550.4778 
  981300    789.88462   -144653.15            0   -141386.03   -3711.4421 
  981400    790.02034   -144653.23            0   -141385.55   -3527.5769 
  981500    798.80017   -144689.22            0   -141385.23   -3331.8556 
  981600    796.31038   -144678.38            0   -141384.69   -3840.7229 
  981700    794.36669    -144669.8            0   -141384.14   -3591.5196 
  981800    795.01063   -144672.09            0   -141383.77   -3655.6735 
  981900    795.00987   -144671.61            0   -141383.29   -3651.4377 
  982000    793.83981   -144666.37            0   -141382.89   -3735.2344 
  982100    797.08112   -144679.49            0   -141382.61     -3759.24 
  982200    792.89676    -144661.8            0   -141382.23   -3458.3904 
  982300    791.93686   -144657.13            0   -141381.53   -3670.3605 
  982400    792.64791   -144659.62            0   -141381.07   -3639.5148 
  982500    793.87804   -144664.29            0   -141380.66   -3741.7702 
  982600    793.44692   -144661.98            0   -141380.13   -3810.7104 
  982700    795.58753   -144670.54            0   -141379.84   -3681.3338 
  982800    799.40118   -144685.94            0   -141379.46   -3707.9919 
  982900    794.01381   -144663.22            0   -141379.02   -3837.4591 
  983000    792.53022   -144656.74            0   -141378.68   -3726.7522 
  983100    796.93426   -144674.69            0   -141378.42   -3772.6324 
  983200    794.87191   -144665.68            0   -141377.93   -3844.6323 
  983300    791.57157   -144651.63            0   -141377.54   -3729.4357 
  983400    795.72399   -144668.54            0   -141377.28   -3582.0623 
  983500    795.70693   -144668.04            0   -141376.84   -3559.5837 
  983600     794.8738    -144663.9            0   -141376.15   -3810.5159 
  983700    797.71439   -144675.36            0   -141375.86   -3762.3602 
  983800    796.23395   -144668.89            0   -141375.52   -3594.1326 
  983900    795.72621    -144666.2            0   -141374.92   -3730.7384 
  984000    795.06132   -144663.06            0   -141374.53   -3657.6635 
  984100    794.66961   -144661.19            0   -141374.28   -3569.4851 
  984200    794.84566   -144661.53            0   -141373.89    -3934.968 
  984300    796.89291   -144669.53            0   -141373.43   -3815.9567 
  984400     794.0792    -144657.4            0   -141372.93     -3575.07 
  984500    791.70218   -144647.02            0   -141372.39    -3708.156 
  984600    792.14802   -144648.35            0   -141371.87    -3781.649 
  984700    796.80365   -144667.24            0    -141371.5   -3485.2687 
  984800    798.17805    -144672.7            0   -141371.28   -3417.8151 
  984900    800.61901    -144682.2            0   -141370.68   -3724.4754 
  985000    787.75192   -144628.63            0   -141370.33   -3648.5444 
  985100    793.57479   -144652.41            0   -141370.03   -3648.3249 
  985200    795.13336   -144658.42            0   -141369.59   -3438.1385 
  985300    793.36958   -144650.74            0    -141369.2   -3550.9263 
  985400    794.08464   -144653.43            0   -141368.94   -3568.2622 
  985500    795.54984   -144659.04            0   -141368.49   -3479.4875 
  985600    794.64004    -144654.6            0   -141367.81   -3504.6793 
  985700    795.99736   -144659.69            0   -141367.28   -3523.1471 
  985800    796.15722   -144659.97            0   -141366.91   -3753.3312 
  985900    796.22898   -144659.83            0   -141366.47   -3613.6572 
  986000    796.39385   -144660.03            0   -141365.99    -3572.299 
  986100    796.42557   -144659.72            0   -141365.55    -3421.277 
  986200    793.25633   -144645.91            0   -141364.85   -3713.1982 
  986300    794.07251   -144648.79            0   -141364.35   -3527.0846 
  986400    798.85611    -144668.1            0   -141363.88   -3576.4908 
  986500    800.12168   -144672.77            0   -141363.31   -3731.6708 
  986600    795.07573   -144651.37            0   -141362.78   -3805.5697 
  986700    797.50874      -144661            0   -141362.35   -3617.1592 
  986800    795.78197   -144653.27            0   -141361.76   -3796.6594 
  986900    796.81374   -144657.22            0   -141361.44   -3592.5578 
  987000    800.14315   -144670.28            0   -141360.73   -3624.2731 
  987100    794.44452   -144646.35            0   -141360.37   -3810.0659 
  987200    792.49856   -144637.93            0      -141360   -3651.6008 
  987300    800.31166   -144669.68            0   -141359.44   -3503.5416 
  987400    799.29928   -144665.04            0   -141358.99   -3913.6351 
  987500     801.0509   -144671.86            0   -141358.55   -3847.0302 
  987600    797.91656    -144658.3            0   -141357.96   -3792.1436 
  987700    798.04656   -144658.48            0   -141357.61   -3890.1884 
  987800    797.21553   -144654.53            0   -141357.09   -3760.5741 
  987900    797.41336   -144654.83            0   -141356.58   -3838.7155 
  988000    803.67885   -144680.38            0    -141356.2   -3761.6547 
  988100    797.61645   -144655.06            0   -141355.96   -3443.2005 
  988200    794.43816   -144641.38            0   -141355.43    -3638.711 
  988300    797.48441   -144653.58            0   -141355.03   -3532.2111 
  988400    797.70413   -144653.95            0   -141354.49   -3643.7856 
  988500    794.87671    -144641.9            0   -141354.13   -3608.3248 
  988600    794.57934   -144640.27            0   -141353.73   -3980.6581 
  988700    800.24857   -144663.26            0   -141353.27   -3302.8413 
  988800    798.15727   -144654.16            0   -141352.83   -3542.7842 
  988900     795.8879   -144644.46            0   -141352.51   -3542.8663 
  989000    796.70574   -144647.33            0      -141352   -3564.8722 
  989100    797.17943   -144648.84            0   -141351.55   -3415.1867 
  989200    797.84029   -144651.22            0    -141351.2   -3509.7815 
  989300    796.90278   -144646.82            0   -141350.67   -3556.4133 
  989400    798.18352   -144651.78            0   -141350.34   -3464.4141 
  989500    797.43341   -144648.11            0   -141349.77   -3860.3236 
  989600    795.60967   -144640.02            0   -141349.22   -3611.0362 
  989700    800.81163   -144661.16            0   -141348.85     -3740.43 
  989800     798.4352    -144650.9            0   -141348.41   -3347.8846 
  989900    802.40145    -144666.8            0   -141347.91   -3718.4536 
  990000    796.03922   -144640.14            0   -141347.57   -3518.3096 
  990100    803.58128      -144671            0   -141347.23   -3723.9476 
  990200    799.12791   -144652.09            0   -141346.74   -3581.9677 
  990300    797.25803    -144643.9            0   -141346.29    -3608.539 
  990400    792.18891   -144622.44            0   -141345.79   -3679.7977 
  990500    797.51792   -144643.91            0   -141345.22    -3485.626 
  990600    799.88048   -144653.24            0   -141344.78   -3329.9398 
  990700    797.50716   -144642.94            0    -141344.3   -3789.9238 
  990800    797.71526    -144643.4            0   -141343.89   -3474.3378 
  990900    795.99493   -144635.56            0   -141343.17    -3682.538 
  991000    803.66713   -144667.12            0   -141342.99   -3461.0841 
  991100    800.19095   -144652.37            0   -141342.63   -3581.2954 
  991200    796.61784    -144637.2            0   -141342.23   -3565.9146 
  991300    800.05931   -144651.11            0   -141341.91   -3827.9684 
  991400    800.07417    -144650.7            0   -141341.44   -3669.8491 
  991500    799.51089   -144647.63            0    -141340.7   -3586.4971 
  991600    797.15098   -144637.25            0   -141340.08   -3760.0025 
  991700    798.84836   -144643.79            0    -141339.6   -3496.9514 
  991800    802.53778   -144658.63            0   -141339.18   -3501.5679 
  991900    799.60309   -144645.95            0   -141338.63   -3897.1881 
  992000    799.23316      -144644            0   -141338.22   -3482.6911 
  992100    798.87301   -144642.27            0   -141337.98   -3814.0168 
  992200    800.18845   -144647.21            0   -141337.47    -3472.779 
  992300    800.09496   -144646.47            0   -141337.12   -3317.0574 
  992400    799.31631    -144642.8            0   -141336.67   -3647.4509 
  992500    802.04506    -144653.5            0   -141336.09   -3390.8202 
  992600    802.12039   -144653.48            0   -141335.75   -3381.5913 
  992700    798.22409   -144636.83            0   -141335.22   -3631.2458 
  992800     806.4565   -144670.51            0   -141334.85   -3270.6696 
  992900    797.79779   -144634.21            0   -141334.37   -3739.4815 
  993000    799.10286   -144639.28            0   -141334.04   -3536.3395 
  993100     802.6317   -144653.33            0   -141333.49   -3365.1705 
  993200    799.04051   -144637.99            0      -141333   -3453.6954 
  993300    794.22284   -144617.65            0   -141332.59   -3654.5227 
  993400    800.97602    -144645.1            0   -141332.11     -3222.36 
  993500    799.17319   -144637.34            0    -141331.8   -3494.1941 
  993600    803.93042   -144656.69            0   -141331.48    -3348.254 
  993700    802.48462   -144650.27            0   -141331.04   -3616.2048 
  993800    802.13536   -144648.17            0   -141330.38    -3285.587 
  993900    794.54269   -144616.39            0      -141330    -3559.418 
  994000     806.0765   -144663.57            0   -141329.48   -3061.9004 
  994100    802.45905   -144648.23            0    -141329.1   -3504.9028 
  994200    798.29045   -144630.46            0   -141328.57   -3510.8014 
  994300     800.5325   -144639.27            0   -141328.12   -3296.2449 
  994400    797.94194   -144628.01            0   -141327.57   -3219.4366 
  994500    799.83498   -144635.41            0   -141327.13   -3533.1984 
  994600    800.48861    -144637.8            0   -141326.82   -3383.4147 
  994700    801.29256   -144640.71            0   -141326.41   -3505.4793 
  994800    801.73993   -144642.04            0   -141325.89   -3162.5772 
  994900    795.04529   -144613.94            0   -141325.47    -3728.075 
  995000    801.38213    -144639.6            0   -141324.93   -3573.8129 
  995100     804.2163      -144651            0    -141324.6   -3681.1696 
  995200    800.75389   -144636.19            0   -141324.12   -3487.7642 
  995300    806.32184   -144658.65            0   -141323.55   -3356.0313 
  995400    798.17149    -144624.5            0    -141323.1   -3606.7587 
  995500    803.03028   -144644.02            0   -141322.53   -3228.9442 
  995600    805.27075      -144653            0   -141322.25   -3638.6363 
  995700     803.9659   -144647.08            0   -141321.72   -3557.3073 
  995800     800.8076   -144633.46            0   -141321.16   -3536.2046 
  995900    800.26662   -144630.73            0   -141320.67   -3497.0495 
  996000    801.80819   -144636.65            0   -141320.21   -3398.1732 
  996100    799.92361   -144628.31            0   -141319.67   -3685.3647 
  996200    801.48885   -144634.45            0   -141319.33   -3581.3815 
  996300    805.93218   -144652.43            0   -141318.93   -3628.9484 
  996400    803.50323   -144641.89            0   -141318.45   -3662.6231 
  996500    803.50539   -144641.44            0   -141317.98   -3850.4842 
  996600    801.30486   -144632.01            0   -141317.66   -3620.4608 
  996700    802.37449   -144635.81            0   -141317.03   -3731.8457 
  996800    804.99822   -144646.16            0   -141316.53   -3597.1053 
  996900    806.29479   -144651.03            0   -141316.04    -3843.373 
  997000    804.63604   -144643.59            0   -141315.46   -3343.7914 
  997100     800.1947   -144624.88            0   -141315.12   -3663.8216 
  997200    801.70154   -144630.81            0   -141314.81   -3943.1293 
  997300    806.99631   -144652.22            0   -141314.32   -3430.8229 
  997400    804.15268   -144639.92            0   -141313.78   -3739.3935 
  997500    802.06467   -144630.83            0   -141313.33   -3407.8631 
  997600    800.86713   -144625.23            0   -141312.68   -3748.1915 
  997700    805.93414   -144645.67            0   -141312.17   -3673.3319 
  997800     805.8317   -144644.75            0   -141311.67   -3667.9513 
  997900    805.89099   -144644.34            0   -141311.02   -3516.7851 
  998000    799.82774   -144618.79            0   -141310.55   -3644.4502 
  998100    803.63762   -144634.07            0   -141310.07   -3626.8385 
  998200     804.1638   -144635.94            0   -141309.76   -3875.7565 
  998300    803.89451   -144634.15            0   -141309.09   -3807.2235 
  998400    804.88686   -144637.82            0   -141308.65   -3567.6309 
  998500    801.08904   -144621.67            0   -141308.21   -3759.5313 
  998600    808.30983   -144651.03            0    -141307.7   -3457.6782 
  998700    802.02706   -144624.49            0   -141307.15   -3493.4641 
  998800    806.63965   -144643.26            0   -141306.84   -3677.3773 
  998900    807.61245   -144646.83            0   -141306.39   -3487.0998 
  999000    801.93152   -144622.77            0   -141305.82   -3746.4154 
  999100    802.35214   -144624.25            0   -141305.56   -3460.8877 
  999200    800.34143   -144615.32            0   -141304.95   -3756.2852 
  999300    806.81724   -144641.63            0   -141304.48    -3591.223 
  999400     804.0543   -144629.85            0   -141304.13   -3623.2485 
  999500    802.38025    -144622.5            0    -141303.7   -3518.6645 
  999600    804.24802   -144629.78            0   -141303.25   -3629.1793 
  999700    808.26729   -144646.08            0   -141302.93   -3571.8889 
  999800    805.66932   -144634.96            0   -141302.56    -3525.261 
  999900    803.85804   -144627.05            0   -141302.13   -3471.6754 
 1000000    804.05401   -144627.29            0   -141301.57   -3540.4005 
Loop time of 810.456 on 44 procs for 1000000 steps with 32000 atoms

Performance: 106.607 ns/day, 0.225 hours/ns, 1233.873 timesteps/s
98.5% CPU use with 44 MPI tasks x 1 OpenMP threads

MPI task timing breakdown:
Section |  min time  |  avg time  |  max time  |%varavg| %total
---------------------------------------------------------------
Pair    | 581.66     | 587.91     | 599.29     |  16.5 | 72.54
Neigh   | 44.749     | 45.187     | 46.913     |   8.3 |  5.58
Comm    | 94.202     | 114.2      | 148.43     | 143.2 | 14.09
Output  | 0.62252    | 1.1193     | 1.8168     |  25.0 |  0.14
Modify  | 3.3133     | 3.3894     | 3.5181     |   2.2 |  0.42
Other   |            | 58.65      |            |       |  7.24

Nlocal:    727.273 ave 781 max 697 min
Histogram: 10 7 5 3 4 4 6 2 2 1
Nghost:    1335.45 ave 1380 max 1290 min
Histogram: 5 5 3 5 1 3 5 10 5 2
Neighs:    0 ave 0 max 0 min
Histogram: 44 0 0 0 0 0 0 0 0 0
FullNghs:  12060.9 ave 13012 max 11542 min
Histogram: 13 2 7 3 4 6 5 2 1 1

Total # of neighbors = 530680
Ave neighs/atom = 16.5837
Neighbor list builds = 36767
Dangerous builds = 0
Total wall time: 0:13:30
