LAMMPS (10 Mar 2016)
  using 1 OpenMP thread(s) per MPI task
Lattice spacing in x,y,z = 5.431 5.431 5.431
Created orthogonal box = (0 0 0) to (108.62 108.62 54.31)
  2 by 11 by 2 MPI processor grid
Created 32000 atoms
----------------------------------------------------------
Using Intel Package without Coprocessor.
Precision: double
----------------------------------------------------------
Neighbor list info ...
  1 neighbor list requests
  update every 1 steps, delay 5 steps, check yes
  max neighbors/atom: 2000, page size: 100000
  master list distance cutoff = 4.2
  ghost atom cutoff = 4.2
  binsize = 2.1, bins = 52 52 26
Setting up Verlet run ...
  Unit style  : metal
  Current step: 0
  Time step   : 0.001
Memory usage per processor = 6.15436 Mbytes
Step Temp E_pair E_mol TotEng Press 
       0         1000   -148173.19            0   -144036.99    7019.4434 
     100      430.642    -145815.5            0   -144034.28   -14554.092 
     200    543.51485   -146282.08            0   -144033.99   -2111.1442 
     300    495.06154   -146081.14            0   -144033.47   -3960.9887 
     400    497.33993   -146090.34            0   -144033.25   -3086.0375 
     500    478.11315   -146010.59            0   -144033.02   -3182.6615 
     600    468.96682   -145972.44            0    -144032.7   -4948.5064 
     700    497.89157    -146091.9            0   -144032.53   -2380.6258 
     800    489.40449   -146056.67            0   -144032.39   -3819.4193 
     900    489.35816   -146056.29            0   -144032.21   -3254.2434 
    1000    483.47807   -146031.79            0   -144032.03   -3982.7479 
    1100    489.36967   -146056.14            0   -144032.01   -3242.4541 
    1200    487.56988   -146048.39            0    -144031.7   -3366.2471 
    1300    490.45212   -146060.23            0   -144031.62   -3645.3186 
    1400    487.55117      -146048            0   -144031.39   -3709.1644 
    1500    490.18187    -146058.6            0   -144031.11     -3468.24 
    1600    488.40495   -146050.99            0   -144030.85   -3347.7784 
    1700    487.39784   -146046.71            0   -144030.74    -3567.549 
    1800    488.30623   -146050.27            0   -144030.54   -3312.0156 
    1900    486.70712   -146043.37            0   -144030.25   -3421.7092 
    2000    487.27815   -146045.48            0   -144030.01   -3556.5592 
    2100    490.06701   -146056.85            0   -144029.84   -3101.5134 
    2200    484.65663   -146034.32            0   -144029.69   -3588.3472 
    2300    489.20455   -146052.88            0   -144029.43   -3084.8707 
    2400    485.76892   -146038.44            0   -144029.21   -3486.8787 
    2500    488.82698   -146050.81            0   -144028.92   -3292.5551 
    2600    490.69719   -146058.38            0   -144028.76   -3129.2277 
    2700    483.34929   -146027.87            0   -144028.64   -3626.4166 
    2800    489.16041   -146051.76            0    -144028.5   -3146.7079 
    2900    486.64205   -146041.17            0   -144028.33   -3407.2085 
    3000     491.5912   -146061.54            0   -144028.22   -3610.8877 
    3100    489.96613   -146054.73            0   -144028.13   -3301.1143 
    3200    486.71712   -146041.12            0   -144027.96   -3326.1721 
    3300    489.88604   -146054.09            0   -144027.83   -3289.6707 
    3400    485.11371   -146034.11            0   -144027.59   -3547.5608 
    3500    490.83007    -146057.6            0   -144027.43    -3063.775 
    3600    488.39125   -146047.28            0   -144027.19   -3458.1944 
    3700    488.65659   -146048.11            0   -144026.93   -3411.2684 
    3800    488.27763   -146046.32            0   -144026.71   -2983.6009 
    3900    486.46333   -146038.65            0   -144026.54   -3477.3959 
    4000    488.72123   -146047.82            0   -144026.37   -3164.1975 
    4100    488.49658   -146046.74            0   -144026.22   -3258.8638 
    4200    484.53932   -146029.98            0   -144025.83   -3511.6485 
    4300    491.59634   -146059.03            0   -144025.69   -3162.4973 
    4400     488.6174   -146046.51            0   -144025.49   -3406.0315 
    4500      490.668   -146054.82            0   -144025.32   -3121.9119 
    4600    484.22404      -146028            0   -144025.16   -3431.1124 
    4700    491.25819   -146056.79            0   -144024.85   -3057.7468 
    4800    484.85319   -146030.13            0   -144024.68   -3377.8523 
    4900    488.19304   -146043.75            0   -144024.49   -3242.5122 
    5000    488.92627    -146046.5            0    -144024.2   -2996.1529 
    5100    486.14185   -146034.84            0   -144024.06   -3414.3264 
    5200    491.68482   -146057.53            0   -144023.82   -2907.0552 
    5300    484.77364   -146028.76            0   -144023.64   -3575.9458 
    5400    492.38782   -146060.11            0   -144023.49   -3004.1533 
    5500    487.23796   -146038.62            0   -144023.31   -3337.7475 
    5600    489.87031   -146049.34            0   -144023.14   -3259.3017 
    5700    492.74861   -146061.11            0   -144023.01    -3259.354 
    5800    489.07338    -146045.7            0    -144022.8   -3350.1909 
    5900    491.11018   -146053.99            0   -144022.66    -3195.975 
    6000    489.58818   -146047.47            0   -144022.44   -3191.1005 
    6100     486.1917   -146033.29            0    -144022.3   -3137.3103 
    6200    488.24758   -146041.62            0   -144022.13   -3239.5202 
    6300    489.93415   -146048.42            0   -144021.96   -3087.6513 
    6400     488.0415   -146040.42            0   -144021.79   -3289.8903 
    6500    488.69032   -146042.92            0    -144021.6   -3118.2898 
    6600    487.22164   -146036.68            0   -144021.44   -3260.2766 
    6700    487.56707   -146037.98            0   -144021.31   -3371.9915 
    6800    490.85694   -146051.37            0   -144021.09   -3119.2536 
    6900    490.76737   -146050.71            0    -144020.8   -3250.0311 
    7000     492.1833   -146056.41            0   -144020.65   -3130.1248 
    7100    490.10153   -146047.66            0    -144020.5   -3255.5518 
    7200    491.61828   -146053.72            0   -144020.29   -3153.6579 
    7300     490.9037   -146050.56            0   -144020.08   -3282.2606 
    7400    489.72875   -146045.52            0   -144019.91   -3299.9166 
    7500     490.2679   -146047.59            0   -144019.74   -3306.7456 
    7600    491.73661   -146053.42            0    -144019.5   -3179.3471 
    7700    487.66467   -146036.35            0   -144019.27   -3313.8673 
    7800    488.42945   -146039.36            0   -144019.12   -3163.7291 
    7900    487.58842   -146035.68            0   -144018.91   -3044.5102 
    8000    489.37496   -146042.87            0   -144018.72   -3060.4829 
    8100    490.01782   -146045.43            0   -144018.62   -3158.5228 
    8200    488.46799   -146038.72            0   -144018.33   -3226.6739 
    8300    487.76892    -146035.7            0   -144018.19   -3188.4089 
    8400    491.65427   -146051.63            0   -144018.05   -2975.1555 
    8500    488.75108   -146039.39            0   -144017.82   -3242.1223 
    8600    490.80772   -146047.75            0   -144017.68   -3297.1387 
    8700    488.85812   -146039.57            0   -144017.55   -3271.8373 
    8800    491.11782   -146048.78            0   -144017.42   -3065.7717 
    8900    490.84205   -146047.39            0   -144017.17   -3385.7427 
    9000     490.6781   -146046.51            0   -144016.97   -3016.9418 
    9100    488.50125   -146037.33            0    -144016.8   -3135.9829 
    9200    490.33952   -146044.74            0    -144016.6   -2969.9265 
    9300    488.51936      -146037            0   -144016.39    -3426.799 
    9400     487.8889   -146034.14            0   -144016.13     -3136.65 
    9500    490.55029   -146044.92            0   -144015.91   -3057.0188 
    9600    487.42755   -146031.83            0   -144015.74   -3300.1241 
    9700    486.13759   -146026.31            0   -144015.55   -3211.4658 
    9800     490.7466   -146045.24            0   -144015.42   -2905.2723 
    9900    488.64687   -146036.33            0   -144015.19   -3170.9452 
   10000    485.92171   -146024.75            0   -144014.88   -3355.5802 
   10100    492.21586   -146050.62            0   -144014.72    -2902.373 
   10200    490.68001   -146044.11            0   -144014.56   -3238.6384 
   10300     488.7324   -146035.94            0   -144014.45   -3186.4599 
   10400    487.51201    -146030.7            0   -144014.26   -3105.7739 
   10500     487.7198   -146031.35            0   -144014.04   -3120.0017 
   10600      490.845   -146044.03            0    -144013.8   -3020.7648 
   10700    487.65851   -146030.66            0   -144013.61   -3148.8886 
   10800    489.91729   -146039.85            0   -144013.46   -3077.7208 
   10900    488.45895   -146033.56            0    -144013.2   -3058.4279 
   11000    488.29237   -146032.73            0   -144013.06    -3031.049 
   11100    491.83275    -146047.2            0   -144012.89    -3149.039 
   11200    490.08774   -146039.76            0   -144012.66   -3111.8765 
   11300    488.40454   -146032.55            0   -144012.42   -3116.7577 
   11400    490.55111   -146041.22            0    -144012.2   -3078.4732 
   11500    486.07673   -146022.57            0   -144012.06   -3218.6138 
   11600    492.65411   -146049.65            0   -144011.93   -3086.2418 
   11700    490.24951   -146039.55            0   -144011.78   -3226.9921 
   11800    488.72222    -146033.1            0   -144011.65   -3299.5365 
   11900    491.47721    -146044.3            0   -144011.45   -2905.7208 
   12000    489.68775   -146036.63            0   -144011.18   -3203.9313 
   12100    489.61224   -146036.18            0   -144011.05    -3128.581 
   12200     491.6019   -146044.21            0   -144010.85   -3098.4338 
   12300    488.56537   -146031.51            0    -144010.7    -3291.426 
   12400    491.58866   -146043.78            0   -144010.48   -3155.8907 
   12500    491.94049   -146045.02            0   -144010.26   -3044.3336 
   12600    486.25923   -146021.38            0   -144010.12   -3261.1116 
   12700    491.14438   -146041.46            0   -144009.99   -3081.2114 
   12800     494.2275   -146053.97            0   -144009.75   -3183.2329 
   12900    491.97607   -146044.48            0   -144009.57   -3272.9879 
   13000    490.05729   -146036.38            0   -144009.41   -3171.3635 
   13100    489.39166    -146033.4            0   -144009.18   -3188.1821 
   13200    491.11668   -146040.39            0   -144009.03    -3189.552 
   13300    490.75301   -146038.64            0   -144008.79    -3156.739 
   13400    488.67474   -146029.77            0   -144008.51   -3203.8938 
   13500    490.30109   -146036.25            0   -144008.27   -3177.8261 
   13600    490.02351   -146034.93            0    -144008.1   -3096.9075 
   13700    492.38627   -146044.56            0   -144007.95   -3151.5035 
   13800     489.6984   -146033.14            0   -144007.66    -3112.423 
   13900     491.2106   -146039.29            0   -144007.54   -3132.3985 
   14000     487.9353   -146025.52            0   -144007.33   -3247.8152 
   14100    492.31923   -146043.63            0    -144007.3   -2942.9081 
   14200    491.19038   -146038.78            0   -144007.12   -3188.1889 
   14300    489.83366   -146032.86            0   -144006.81    -3144.773 
   14400    489.78199   -146032.47            0   -144006.64   -3132.1599 
   14500      490.406   -146034.86            0   -144006.45   -3065.9857 
   14600    490.56331   -146035.41            0   -144006.35   -2868.5292 
   14700     489.5165   -146030.88            0   -144006.14    -3105.923 
   14800    491.51529    -146038.9            0    -144005.9   -3117.7778 
   14900    491.82208   -146040.01            0   -144005.74   -3079.9387 
   15000    490.08336   -146032.66            0   -144005.58   -3235.1357 
   15100    489.00963   -146028.08            0   -144005.45    -3240.164 
   15200    493.13625   -146044.99            0   -144005.28   -3057.9579 
   15300    489.95782    -146031.6            0   -144005.04   -3056.2471 
   15400    488.10981   -146023.75            0   -144004.83   -3342.9134 
   15500     492.3042   -146040.94            0   -144004.67   -3245.1618 
   15600    488.71989   -146025.92            0   -144004.48   -3260.7364 
   15700    491.63512   -146037.77            0   -144004.27   -3038.1648 
   15800    491.57263   -146037.35            0   -144004.11   -3270.2475 
   15900    489.90332    -146030.2            0   -144003.86   -3416.4941 
   16000    493.32023   -146044.12            0   -144003.66   -3006.3016 
   16100    488.80994   -146025.33            0   -144003.51    -3324.006 
   16200    491.14261   -146034.76            0    -144003.3     -3192.95 
   16300    491.70544   -146036.87            0   -144003.08   -3205.0357 
   16400    493.02338    -146042.2            0   -144002.96   -3233.2391 
   16500    490.41696   -146031.26            0    -144002.8   -3164.5733 
   16600    488.43023    -146022.8            0   -144002.56   -3164.0925 
   16700    488.69346   -146023.65            0   -144002.31   -3124.0851 
   16800    490.20752   -146029.65            0   -144002.06   -3218.8584 
   16900    492.12724   -146037.45            0   -144001.91   -3090.5365 
   17000    492.77997   -146040.01            0   -144001.78   -3300.4929 
   17100    489.21057   -146025.17            0    -144001.7   -3187.1677 
   17200    489.55446   -146026.44            0   -144001.54   -3141.2928 
   17300    489.90692   -146027.72            0   -144001.37   -3055.1993 
   17400    488.16422   -146020.24            0   -144001.09   -3028.9762 
   17500    491.69031   -146034.71            0   -144000.98   -3205.5162 
   17600    489.81618   -146026.71            0   -144000.73   -3074.2151 
   17700    491.38581   -146033.08            0   -144000.62   -3201.1123 
   17800    493.44339   -146041.49            0   -144000.51   -3024.3998 
   17900    489.76882   -146026.12            0   -144000.34   -3327.8683 
   18000    491.93078   -146034.92            0    -144000.2   -2979.4229 
   18100    490.40543   -146028.51            0   -144000.09   -3139.9278 
   18200    491.46497   -146032.69            0   -143999.89    -2940.875 
   18300     491.8982   -146034.25            0   -143999.66   -3233.2865 
   18400    492.63371   -146037.08            0   -143999.45   -2991.5963 
   18500    492.70377   -146037.15            0   -143999.24   -3012.9237 
   18600    491.54809   -146032.19            0   -143999.05   -3256.4478 
   18700    491.39857   -146031.39            0   -143998.87   -3018.3687 
   18800    492.34135   -146035.12            0    -143998.7     -3004.95 
   18900    491.05246   -146029.65            0   -143998.56    -3191.273 
   19000    492.37524   -146034.94            0   -143998.38   -2829.0462 
   19100     491.2995   -146030.36            0   -143998.25   -3064.3488 
   19200    493.41055   -146038.83            0   -143997.98    -3157.407 
   19300    491.31321   -146029.98            0   -143997.81   -3111.8235 
   19400    490.39461      -146026            0   -143997.64   -3146.6363 
   19500    494.45138   -146042.69            0   -143997.54   -2885.4703 
   19600    491.03434   -146028.33            0   -143997.31   -3065.5972 
   19700    492.15789   -146032.74            0   -143997.08    -2947.714 
   19800    491.62921   -146030.29            0   -143996.82   -3011.3292 
   19900    493.85894   -146039.33            0   -143996.63   -3188.6199 
   20000    489.77659   -146022.13            0   -143996.32   -2975.1286 
   20100    491.35321   -146028.52            0   -143996.19   -3160.3732 
   20200    492.31741    -146032.4            0   -143996.08   -3092.0329 
   20300    493.24596   -146036.06            0    -143995.9   -2869.3718 
   20400    489.93803   -146022.35            0   -143995.87   -3174.0468 
   20500    490.88311   -146026.14            0   -143995.75   -3035.9854 
   20600    494.06319   -146039.14            0    -143995.6   -3027.7535 
   20700    491.91227    -146030.1            0   -143995.46    -3125.951 
   20800    492.51668   -146032.47            0   -143995.32   -3056.5133 
   20900    492.57439   -146032.51            0   -143995.13    -3009.189 
   21000    491.47363    -146027.8            0   -143994.96   -3043.1051 
   21100    491.45014   -146027.56            0   -143994.82   -3026.2429 
   21200    494.04444   -146038.07            0   -143994.61   -2818.1758 
   21300    490.61503   -146023.69            0   -143994.41   -3179.1102 
   21400    493.16098   -146034.11            0    -143994.3   -3081.9416 
   21500    492.22469      -146030            0   -143994.06   -2916.0288 
   21600    490.71607   -146023.59            0   -143993.89   -3163.0344 
   21700     491.0415   -146024.78            0   -143993.74   -3074.1392 
   21800    491.85672   -146027.94            0   -143993.53   -3076.1648 
   21900    490.14046   -146020.64            0   -143993.33   -2920.8411 
   22000    489.93237   -146019.52            0   -143993.07   -3212.1742 
   22100    491.83075   -146027.26            0   -143992.96   -2844.3945 
   22200    491.56303   -146025.91            0    -143992.7   -3097.5557 
   22300    491.00184   -146023.48            0   -143992.61   -3149.2467 
   22400    492.17998   -146028.26            0    -143992.5   -3061.6382 
   22500    492.91698   -146031.16            0   -143992.36   -2988.6219 
   22600     493.4867   -146033.29            0   -143992.13   -3072.8518 
   22700    493.30922   -146032.39            0   -143991.96   -3158.2421 
   22800    491.91254   -146026.42            0   -143991.78   -3039.0406 
   22900    490.67081   -146020.98            0   -143991.47   -3021.3244 
   23000    493.50003   -146032.49            0   -143991.28    -2955.634 
   23100    491.76639   -146025.24            0    -143991.2   -3156.2952 
   23200    491.64912   -146024.52            0   -143990.96   -2879.5328 
   23300    492.49801   -146027.77            0    -143990.7   -3124.5877 
   23400    491.09867   -146021.75            0   -143990.47   -3018.1626 
   23500    490.41353   -146018.72            0   -143990.28   -2944.3105 
   23600     491.1476   -146021.54            0   -143990.05   -3015.9685 
   23700    493.58491    -146031.4            0   -143989.83   -2989.2182 
   23800    490.71634   -146019.39            0   -143989.69   -2983.7903 
   23900     493.5039   -146030.75            0   -143989.52   -3056.8817 
   24000    492.81896   -146027.77            0   -143989.37    -3058.458 
   24100    492.56218   -146026.54            0    -143989.2   -3067.6072 
   24200    490.98308   -146019.89            0   -143989.09   -3174.6959 
   24300    495.65389   -146039.06            0   -143988.94   -2929.2118 
   24400    492.87615   -146027.33            0    -143988.7    -3142.592 
   24500    492.48143   -146025.53            0   -143988.53   -3152.4887 
   24600    494.63722   -146034.32            0    -143988.4   -3183.9688 
   24700    492.72837   -146026.21            0   -143988.19   -3046.3901 
   24800    492.89084   -146026.75            0   -143988.05   -3067.2807 
   24900    491.73875    -146021.8            0   -143987.87   -3089.8111 
   25000    492.06054   -146022.98            0   -143987.72   -3045.2171 
   25100    489.94185   -146014.07            0   -143987.58   -3157.0815 
   25200    492.61363   -146025.02            0   -143987.48   -3113.8422 
   25300    492.28173   -146023.48            0   -143987.31   -3152.8841 
   25400    490.72713    -146016.8            0   -143987.06   -2983.1506 
   25500    494.26897   -146031.25            0   -143986.86   -3095.7458 
   25600     493.3014      -146027            0   -143986.61    -3052.377 
   25700    492.36906   -146022.94            0   -143986.41   -3346.3317 
   25800    492.60535   -146023.72            0   -143986.21   -3134.9422 
   25900     494.8468   -146032.76            0   -143985.97   -3163.7525 
   26000    494.56864   -146031.38            0   -143985.74   -2993.4644 
   26100    491.40856    -146018.2            0   -143985.64   -3142.6255 
   26200    491.21659   -146017.23            0   -143985.47   -3197.7385 
   26300    495.24269   -146033.68            0   -143985.26   -3037.2992 
   26400    492.14132   -146020.59            0   -143984.99   -3271.6164 
   26500    494.56717   -146030.42            0    -143984.8   -3172.1506 
   26600    492.05347   -146019.91            0   -143984.68   -3099.8302 
   26700    493.97811   -146027.69            0    -143984.5    -3247.949 
   26800    495.32325   -146033.13            0   -143984.37   -3102.8811 
   26900    491.49892   -146017.11            0   -143984.18   -3229.7956 
   27000    491.22291    -146015.7            0   -143983.91   -2915.2257 
   27100    494.58538   -146029.58            0   -143983.88   -3283.2392 
   27200    493.72712   -146025.86            0    -143983.7   -3064.7528 
   27300    495.34232   -146032.35            0   -143983.52   -3217.8859 
   27400    493.80262    -146025.8            0   -143983.33   -3276.0329 
   27500    493.58012   -146024.66            0   -143983.12   -3215.0458 
   27600    492.57673   -146020.33            0   -143982.94   -3146.1218 
   27700    490.89492   -146013.13            0   -143982.69   -3144.4525 
   27800    493.25015   -146022.74            0   -143982.56   -2893.9229 
   27900    490.69276   -146012.01            0    -143982.4   -3317.3436 
   28000    496.95702   -146037.78            0   -143982.27   -2892.4153 
   28100    492.92597   -146020.99            0   -143982.15   -3185.4001 
   28200    492.32646   -146018.26            0   -143981.91    -3221.831 
   28300    494.49204   -146027.08            0   -143981.77    -3214.066 
   28400    496.43948   -146034.97            0    -143981.6   -3113.8188 
   28500    493.00284   -146020.61            0   -143981.45   -3317.5606 
   28600    493.65129   -146023.17            0   -143981.33   -3137.3446 
   28700    491.76395   -146015.06            0   -143981.03   -3271.1607 
   28800    495.43202   -146030.13            0   -143980.93   -3156.7009 
   28900    495.01627   -146028.26            0   -143980.78   -3037.0897 
   29000    493.17265   -146020.44            0   -143980.58   -3358.5802 
   29100    493.73238   -146022.75            0   -143980.57   -3084.3044 
   29200    491.26274   -146012.39            0   -143980.43   -3159.9118 
   29300    492.42117   -146017.05            0    -143980.3   -3037.7125 
   29400    493.45125   -146021.24            0   -143980.23   -3128.5759 
   29500    493.43975   -146021.09            0   -143980.13   -3180.8141 
   29600    496.56753   -146033.83            0   -143979.93   -3204.0785 
   29700    494.19316   -146023.92            0   -143979.84   -3212.1922 
   29800    496.06574   -146031.51            0   -143979.68     -3180.74 
   29900    492.36574   -146016.04            0   -143979.52   -3326.6357 
   30000    496.84839   -146034.41            0   -143979.35   -3028.7424 
   30100     492.6896   -146017.11            0   -143979.25   -3383.4065 
   30200    492.47589   -146016.08            0   -143979.11   -3218.9486 
   30300      492.591   -146016.39            0   -143978.94   -3037.7627 
   30400    492.58241   -146016.18            0   -143978.76   -3122.2952 
   30500    493.00118   -146017.71            0   -143978.56   -3125.9234 
   30600    492.54146   -146015.68            0   -143978.43   -3233.6176 
   30700    494.06317   -146021.81            0   -143978.26   -3099.9075 
   30800    493.80631   -146020.59            0   -143978.11   -3095.6931 
   30900    495.82945   -146028.76            0   -143977.91   -2953.9929 
   31000    493.49879   -146019.02            0   -143977.81   -3232.5816 
   31100    491.68651   -146011.45            0   -143977.73   -3252.4463 
   31200    495.86915   -146028.52            0   -143977.51   -2990.4834 
   31300    492.90418    -146016.1            0   -143977.36    -3288.002 
   31400    491.90482   -146011.84            0   -143977.22   -3206.2224 
   31500    490.88104   -146007.42            0   -143977.04   -3026.0974 
   31600    493.52289   -146018.21            0    -143976.9   -3149.9519 
   31700    493.22982   -146016.81            0   -143976.72   -3208.1744 
   31800    493.16222   -146016.28            0   -143976.46   -3027.0201 
   31900    493.74747   -146018.53            0   -143976.29   -3029.9933 
   32000    495.03235   -146023.61            0   -143976.06   -3130.9338 
   32100    494.07739   -146019.62            0   -143976.02   -3106.9743 
   32200    493.93431   -146018.86            0   -143975.86   -2914.7706 
   32300    495.59325   -146025.63            0   -143975.76   -3121.6964 
   32400    494.72538   -146021.91            0   -143975.63   -3116.6699 
   32500     494.6747   -146021.59            0   -143975.52   -3158.3797 
   32600    497.71204   -146034.03            0    -143975.4   -2908.8052 
   32700    494.60429   -146021.09            0   -143975.31   -3369.0582 
   32800    496.65414   -146029.32            0   -143975.06   -2808.5731 
   32900    492.75128   -146012.96            0   -143974.85    -3247.521 
   33000    493.27139   -146014.91            0   -143974.64   -3226.3048 
   33100    494.51153   -146019.97            0   -143974.57   -3141.0257 
   33200    495.62855   -146024.38            0   -143974.36   -3090.5242 
   33300    493.80174    -146016.6            0   -143974.13    -2945.764 
   33400    493.34464    -146014.6            0   -143974.03   -3119.7293 
   33500    495.33317   -146022.69            0   -143973.89   -2949.0071 
   33600    492.66455   -146011.48            0   -143973.72   -3009.2987 
   33700    493.51021   -146014.87            0   -143973.61   -2980.7628 
   33800    495.62869   -146023.49            0   -143973.47   -3048.9437 
   33900    494.14166   -146017.14            0   -143973.27   -3018.2194 
   34000    495.99575   -146024.67            0   -143973.14   -3085.6159 
   34100    496.34283   -146026.08            0    -143973.1   -3024.5332 
   34200    493.70784   -146015.01            0   -143972.94   -3186.1311 
   34300    493.89423   -146015.68            0   -143972.83   -2955.5292 
   34400    491.60791   -146006.02            0   -143972.64   -3028.6895 
   34500    494.39351   -146017.28            0   -143972.37   -2981.7282 
   34600    492.48447    -146009.2            0   -143972.19    -3156.449 
   34700    495.62157   -146022.08            0   -143972.09   -3079.5671 
   34800    494.94524   -146019.05            0   -143971.86   -2950.7382 
   34900    493.85932   -146014.34            0   -143971.64   -3120.3055 
   35000    497.10706   -146027.66            0   -143971.53   -2974.2486 
   35100    493.21918   -146011.38            0   -143971.33   -3070.4586 
   35200    495.10181   -146019.06            0   -143971.22   -2899.7229 
   35300    496.37821   -146024.22            0    -143971.1   -3000.4647 
   35400     496.2444   -146023.49            0   -143970.93   -3003.3392 
   35500    496.38882   -146024.02            0   -143970.85    -3056.344 
   35600    493.73082   -146012.71            0   -143970.55   -3125.4945 
   35700    497.67457   -146028.84            0   -143970.36   -2940.7999 
   35800    494.73734    -146016.5            0   -143970.17   -3072.3066 
   35900    498.66876   -146032.58            0   -143969.99   -3073.3626 
   36000    493.00245   -146008.96            0   -143969.81   -3174.4752 
   36100    497.42045   -146027.19            0   -143969.77   -2894.9666 
   36200    495.28267   -146018.18            0   -143969.59    -2974.242 
   36300    494.93007   -146016.55            0   -143969.43   -3054.3615 
   36400    495.16342   -146017.27            0   -143969.18   -3131.5642 
   36500    497.36453   -146026.29            0   -143969.09   -2875.7709 
   36600    494.20772    -146012.9            0   -143968.76   -3401.8848 
   36700    498.96868   -146032.44            0   -143968.61   -2982.0204 
   36800    494.86262   -146015.26            0   -143968.41   -2973.9357 
   36900    494.21494   -146012.39            0   -143968.22   -2988.8657 
   37000    494.34608   -146012.76            0   -143968.04   -3068.6487 
   37100    495.23838   -146016.33            0   -143967.93   -3015.3619 
   37200    497.30872    -146024.7            0   -143967.73   -3159.3017 
   37300    495.37887   -146016.56            0   -143967.57    -2995.462 
   37400    494.40761    -146012.3            0   -143967.33   -2964.6218 
   37500    492.85829   -146005.75            0   -143967.19   -3089.5606 
   37600    492.71323   -146005.08            0   -143967.12   -2929.2451 
   37700    496.00462   -146018.46            0   -143966.89   -3161.8825 
   37800    498.41241   -146028.24            0   -143966.71   -2961.3538 
   37900    494.11228   -146010.24            0   -143966.49   -3231.5237 
   38000    497.15976   -146022.73            0   -143966.38   -3094.7595 
   38100     496.6418   -146020.43            0   -143966.22   -2950.1921 
   38200    494.98261   -146013.38            0   -143966.03    -3123.236 
   38300    495.26178   -146014.37            0   -143965.87   -3031.9703 
   38400    495.03353   -146013.18            0   -143965.63   -3174.3184 
   38500    493.11263   -146005.06            0   -143965.45    -2901.194 
   38600    494.00039    -146008.5            0   -143965.22   -3017.5468 
   38700    493.45852   -146006.05            0   -143965.01     -2964.29 
   38800    495.98965   -146016.38            0   -143964.87   -2898.3307 
   38900     491.5424   -145997.81            0   -143964.69   -3167.6622 
   39000    495.37422   -146013.52            0   -143964.55   -2823.9465 
   39100    495.28831   -146013.01            0    -143964.4   -2985.8065 
   39200    495.12405   -146012.11            0   -143964.18   -3153.2429 
   39300    495.48076   -146013.36            0   -143963.95   -2908.8793 
   39400    494.90302   -146010.78            0   -143963.76   -3061.8813 
   39500    497.37254    -146020.9            0   -143963.67   -3010.9114 
   39600    494.72722    -146009.8            0   -143963.51   -2964.7625 
   39700    497.00126   -146019.04            0   -143963.34   -2903.5349 
   39800    496.47066   -146016.64            0   -143963.14   -2856.2118 
   39900    491.44573   -145995.69            0   -143962.97   -3055.4262 
   40000    493.97885   -146006.01            0   -143962.81   -2908.0413 
   40100    495.36577   -146011.64            0   -143962.71   -2840.6694 
   40200     489.4672   -145986.99            0   -143962.45    -3109.679 
   40300    491.45115   -145994.95            0   -143962.21   -2887.9068 
   40400    496.46323   -146015.58            0   -143962.11   -2913.4171 
   40500    497.07346    -146017.9            0   -143961.91   -2902.2346 
   40600    496.19368    -146014.1            0   -143961.74   -3038.6148 
   40700    496.06373   -146013.21            0   -143961.39   -2928.4047 
   40800    495.39896   -146010.24            0   -143961.18   -2981.2532 
   40900    494.66681   -146007.08            0   -143961.04   -2936.1076 
   41000    498.00547   -146020.76            0   -143960.92   -2970.7328 
   41100    496.28608   -146013.48            0   -143960.74   -3058.3526 
   41200    497.54545   -146018.48            0   -143960.54    -2786.325 
   41300    493.64092   -146002.09            0    -143960.3   -3180.6814 
   41400    498.74465   -146023.07            0   -143960.17   -2792.0139 
   41500    491.93036    -145994.7            0   -143959.98   -3057.5474 
   41600    494.11437    -146003.6            0   -143959.85   -2864.6857 
   41700    494.33778   -146004.42            0   -143959.74   -2842.6431 
   41800    492.48348   -145996.48            0   -143959.48    -2962.375 
   41900    496.98556   -146014.94            0   -143959.31   -2900.3103 
   42000    495.09283   -146006.93            0   -143959.13   -3100.1692 
   42100     495.6332   -146008.96            0   -143958.93   -2815.0709 
   42200      493.984   -146001.98            0   -143958.77   -2985.1049 
   42300    495.38942   -146007.55            0   -143958.53   -2901.9176 
   42400    495.18454   -146006.55            0   -143958.37   -2999.8454 
   42500    497.15629   -146014.56            0   -143958.23   -2933.1107 
   42600    495.25721   -146006.52            0   -143958.04   -3128.4832 
   42700    494.82665    -146004.5            0    -143957.8   -3030.8147 
   42800    496.46733   -146011.16            0   -143957.68   -2812.1753 
   42900    495.67838   -146007.69            0   -143957.46   -2866.0055 
   43000    494.76863   -146003.79            0   -143957.33   -2977.2444 
   43100    495.79883   -146007.84            0   -143957.11   -3022.0284 
   43200    493.14013   -145996.64            0   -143956.92   -3044.0344 
   43300    494.97073   -146004.03            0   -143956.74   -2951.7796 
   43400    496.40651   -146009.71            0   -143956.48   -3078.1011 
   43500    495.11028   -146004.17            0    -143956.3   -3139.0687 
   43600    496.91507   -146011.45            0   -143956.12    -2926.691 
   43700    494.94292   -146003.19            0   -143956.01   -3098.0964 
   43800    495.57415   -146005.55            0   -143955.76   -2958.2217 
   43900    493.74482   -145997.83            0    -143955.6   -3030.8604 
   44000    497.34858   -146012.59            0   -143955.46   -2976.4142 
   44100    495.79132   -146006.04            0   -143955.35   -3051.9199 
   44200     495.4119   -146004.24            0   -143955.12   -3075.3653 
   44300    497.17622   -146011.32            0    -143954.9   -2785.3511 
   44400    496.56495    -146008.7            0   -143954.81   -3157.5908 
   44500    495.86864    -146005.6            0   -143954.59   -2976.4328 
   44600    496.93034   -146009.87            0   -143954.47   -3131.2705 
   44700    494.92381   -146001.41            0    -143954.3   -2931.5846 
   44800    496.98642   -146009.76            0   -143954.12   -3028.7838 
   44900    494.54796   -145999.44            0   -143953.89   -3004.0185 
   45000    496.82507   -146008.66            0    -143953.7   -2931.8596 
   45100    491.53255   -145986.74            0   -143953.66   -3165.3797 
   45200    495.22425   -146001.86            0   -143953.52   -3061.6524 
   45300    496.80988   -146008.24            0   -143953.34   -3117.5264 
   45400    498.04747   -146013.19            0   -143953.17   -3268.3617 
   45500    497.42371   -146010.36            0   -143952.92    -3036.543 
   45600    496.31849   -146005.53            0   -143952.66   -3168.6497 
   45700    498.28174   -146013.42            0   -143952.43   -3035.2394 
   45800    496.16231   -146004.47            0   -143952.24   -3336.4798 
   45900    498.31294   -146013.25            0   -143952.13   -2964.1473 
   46000    497.34027   -146009.07            0   -143951.98   -3217.8976 
   46100    499.56279   -146018.17            0   -143951.88   -2952.3028 
   46200    495.77802   -146002.43            0   -143951.79   -3208.0129 
   46300    496.14408   -146003.69            0   -143951.54   -2989.0874 
   46400    500.40654   -146021.24            0   -143951.46   -3078.2607 
   46500    499.02458   -146015.38            0   -143951.32   -3232.2963 
   46600    496.77087   -146005.86            0   -143951.12   -3158.9216 
   46700    496.87735   -146006.07            0   -143950.88   -3183.2916 
   46800    497.91922   -146010.27            0   -143950.78   -3007.7364 
   46900    496.72093   -146005.19            0   -143950.65    -3187.839 
   47000    496.52021   -146004.18            0   -143950.47   -2976.3737 
   47100     496.8909   -146005.47            0   -143950.24   -3016.1149 
   47200    496.63488   -146004.25            0   -143950.07   -3105.4908 
   47300    499.61659    -146016.4            0   -143949.88   -3173.7298 
   47400    502.35518    -146027.6            0   -143949.76   -3211.6071 
   47500    496.54874   -146003.29            0   -143949.46   -3030.8527 
   47600    495.52112   -145998.87            0   -143949.29   -3085.1264 
   47700    496.63246   -146003.26            0   -143949.09   -2944.0295 
   47800    494.98381   -145996.23            0   -143948.88   -3077.5044 
   47900    497.81908   -146007.74            0   -143948.66   -2957.5797 
   48000    497.02772   -146004.32            0   -143948.51   -3139.9168 
   48100     495.7745   -145999.07            0   -143948.45   -3119.9551 
   48200    497.11661   -146004.49            0   -143948.32   -3083.2344 
   48300    495.20207   -145996.31            0   -143948.06   -2990.0635 
   48400    494.62055   -145993.71            0   -143947.86   -3253.6783 
   48500    498.25938   -146008.53            0   -143947.64   -2897.6096 
   48600    495.92846   -145998.76            0   -143947.51   -3152.5662 
   48700    496.02142   -145998.88            0   -143947.23   -3224.7513 
   48800    498.15669   -146007.47            0   -143946.99   -2941.7336 
   48900    497.45157    -146004.4            0   -143946.84   -3147.0908 
   49000    498.74272   -146009.54            0   -143946.64   -3071.2413 
   49100    494.31362   -145991.12            0   -143946.54   -3293.5919 
   49200    497.13163   -146002.57            0   -143946.34   -3101.9949 
   49300    497.93712   -146005.72            0   -143946.16   -2947.7064 
   49400    495.21809   -145994.33            0   -143946.01   -3181.0404 
   49500    499.06471   -146010.08            0   -143945.86   -3095.8929 
   49600    497.72185   -146004.39            0   -143945.72   -3281.9232 
   49700    499.40325    -146011.1            0   -143945.47   -2947.9899 
   49800    499.14944   -146009.89            0   -143945.31   -3423.2809 
   49900    498.46263   -146006.84            0    -143945.1   -2979.2871 
   50000    497.11279   -146000.96            0   -143944.81   -3049.7042 
   50100    497.45825   -146002.28            0   -143944.69   -3092.9026 
   50200    497.92711   -146003.93            0   -143944.41   -3080.4042 
   50300    496.21721   -145996.65            0    -143944.2   -3151.0842 
   50400    494.41173   -145988.99            0   -143944.01    -3065.219 
   50500    498.94084   -146007.56            0   -143943.85   -3161.6182 
   50600    499.62342   -146010.13            0   -143943.59   -3061.6407 
   50700    499.21385   -146008.31            0   -143943.47    -3124.073 
   50800      498.765   -146006.22            0   -143943.23   -3039.1743 
   50900    499.44723   -146008.83            0   -143943.02   -3040.4945 
   51000    499.25399   -146007.84            0   -143942.83   -3034.5041 
   51100    498.94071   -146006.48            0   -143942.76   -3268.2359 
   51200    497.10975   -145998.68            0   -143942.54   -2992.8812 
   51300    497.94054      -146002            0   -143942.42   -2901.6442 
   51400    496.25722   -145994.89            0   -143942.27   -3119.6991 
   51500    499.12125   -146006.47            0      -143942   -2855.2252 
   51600    498.33698   -146003.14            0   -143941.92   -3100.6097 
   51700    497.64045   -145999.99            0   -143941.65   -3021.1461 
   51800    500.06907   -146009.81            0   -143941.42   -2967.1748 
   51900    495.38568   -145990.28            0   -143941.27   -2918.6982 
   52000    498.52417   -146003.05            0   -143941.06   -2975.6759 
   52100    500.50676   -146011.14            0   -143940.95   -3116.3314 
   52200    497.46602   -145998.19            0   -143940.58   -3163.6964 
   52300    497.63916   -145998.75            0   -143940.42   -3076.0178 
   52400    499.53781   -146006.46            0   -143940.27   -3016.4004 
   52500    496.82519   -145995.03            0   -143940.06   -3068.1773 
   52600    498.55865   -146002.04            0    -143939.9   -2962.6808 
   52700    498.13256   -146000.13            0   -143939.75    -3148.602 
   52800    501.06295    -146012.1            0    -143939.6   -3148.3692 
   52900     500.4474   -146009.27            0   -143939.32    -2950.691 
   53000    497.69035   -145997.72            0   -143939.18   -3311.0466 
   53100    498.49391   -146000.93            0   -143939.06   -2964.2148 
   53200    497.68887   -145997.39            0   -143938.86   -3193.8995 
   53300    501.99422   -146015.01            0   -143938.67   -2899.6208 
   53400    496.86168   -145993.73            0   -143938.62   -3286.7882 
   53500    500.48775   -146008.61            0    -143938.5   -2987.4666 
   53600    498.00569   -145998.07            0   -143938.22    -2909.224 
   53700    498.74121   -146000.96            0   -143938.07   -3133.9298 
   53800     497.5903   -145996.09            0   -143937.96   -3071.0541 
   53900     498.9836   -146001.68            0   -143937.79     -3206.59 
   54000     499.9058   -146005.27            0   -143937.56   -2804.5463 
   54100    497.76946   -145996.32            0   -143937.45   -3017.1856 
   54200    497.57954   -145995.37            0   -143937.28   -3220.5998 
   54300    502.23324   -146014.42            0   -143937.08   -2950.4963 
   54400    498.75777    -145999.8            0   -143936.84   -3171.0017 
   54500    497.35621   -145993.73            0   -143936.57   -3072.9261 
   54600    497.78327   -145995.17            0   -143936.24   -3026.7206 
   54700     496.5916   -145989.98            0   -143935.98   -3203.2187 
   54800    501.78764   -146011.35            0   -143935.85    -2933.981 
   54900    500.00276   -146003.82            0   -143935.71   -3076.9608 
   55000    500.36218   -146005.03            0   -143935.43   -3220.9425 
   55100    497.11016   -145991.29            0   -143935.15   -3133.6825 
   55200    498.40585   -145996.39            0   -143934.88    -2888.885 
   55300    498.80439   -145997.85            0    -143934.7   -3232.9442 
   55400    492.43981   -145971.24            0   -143934.41   -3054.5641 
   55500    500.98912    -146006.5            0   -143934.31   -3068.2698 
   55600     499.7321   -146001.11            0   -143934.12   -3185.4199 
   55700    500.39613   -146003.57            0   -143933.83   -3052.3078 
   55800    497.90233   -145993.05            0   -143933.62   -3107.1602 
   55900    496.60372   -145987.51            0   -143933.46   -3174.2057 
   56000    498.40965   -145994.79            0   -143933.27   -2954.7894 
   56100    502.37743   -146010.99            0   -143933.06   -3148.6688 
   56200    499.04394   -145997.07            0   -143932.93   -3248.3155 
   56300    496.86129   -145987.88            0   -143932.76   -3003.0923 
   56400    500.81791    -146004.1            0   -143932.62   -3292.8316 
   56500    501.90174   -146008.44            0   -143932.47     -3099.42 
   56600    498.05726   -145992.34            0   -143932.28    -3145.808 
   56700    496.04607   -145983.89            0   -143932.15   -3124.5034 
   56800    496.93568    -145987.4            0   -143931.98   -3102.2958 
   56900    501.43562   -146005.87            0   -143931.84   -2930.6016 
   57000    495.64954   -145981.69            0   -143931.59   -3076.0192 
   57100    498.51588   -145993.44            0   -143931.48   -3216.3461 
   57200    500.43501   -146001.15            0   -143931.25   -3027.6796 
   57300    498.83126   -145994.36            0    -143931.1   -3072.6886 
   57400    498.61218   -145993.28            0   -143930.92   -3167.5695 
   57500    500.52919   -146000.97            0   -143930.69    -3211.019 
   57600    501.09442   -146003.16            0   -143930.54   -3121.6212 
   57700    502.05742   -146006.97            0   -143930.36   -2923.9487 
   57800    495.07626   -145977.84            0   -143930.11   -3236.4204 
   57900    500.81443   -146001.42            0   -143929.95   -3020.5986 
   58000     501.3613   -146003.51            0   -143929.79   -3035.5274 
   58100     496.5945   -145983.66            0   -143929.65   -3280.2944 
   58200    501.85493   -146005.23            0   -143929.46    -2893.195 
   58300    496.97959   -145984.81            0    -143929.2   -3156.3581 
   58400    499.25482   -145994.14            0   -143929.12   -3114.6597 
   58500    500.96066   -146000.99            0   -143928.91   -3212.1445 
   58600    500.75976   -145999.87            0   -143928.63   -2965.3274 
   58700     500.3676   -145998.02            0    -143928.4   -3167.6456 
   58800    498.59525   -145990.48            0   -143928.19   -2904.3533 
   58900     497.9162   -145987.54            0   -143928.06   -3181.4179 
   59000    498.55519   -145989.92            0    -143927.8   -3001.5373 
   59100     498.6604   -145990.26            0   -143927.71   -3068.0127 
   59200    498.91312   -145991.15            0   -143927.55   -2983.5573 
   59300    503.11026   -146008.35            0   -143927.38   -3219.3372 
   59400    496.73745   -145981.63            0   -143927.03   -3010.4229 
   59500     501.5403    -146001.3            0   -143926.83   -3217.6305 
   59600      501.443   -146000.81            0   -143926.75   -2945.0382 
   59700    501.87921   -146002.47            0    -143926.6   -3034.8866 
   59800    498.28321   -145987.44            0   -143926.44    -3310.706 
   59900    502.46278   -146004.47            0   -143926.18   -2975.9376 
   60000    497.87027   -145985.24            0   -143925.95   -3208.8358 
   60100    501.31208   -145999.35            0   -143925.82   -3038.3027 
   60200    500.17894    -145994.5            0   -143925.66   -3122.8828 
   60300    500.75888   -145996.68            0   -143925.45   -3056.3376 
   60400    500.37032   -145994.85            0   -143925.22   -3097.4864 
   60500    500.53406   -145995.28            0   -143924.97   -3149.8805 
   60600    500.96765   -145996.81            0   -143924.71   -3106.5452 
   60700    499.85909   -145992.04            0   -143924.53   -3133.8748 
   60800    497.57088   -145982.43            0   -143924.38   -3126.9089 
   60900    502.48055   -146002.59            0   -143924.23    -3119.168 
   61000    500.47253   -145993.98            0   -143923.92   -3177.4406 
   61100    500.21196   -145992.76            0   -143923.78   -3110.0387 
   61200    499.71664   -145990.52            0   -143923.59   -3161.4803 
   61300    501.90078   -145999.39            0   -143923.43   -3106.4255 
   61400    498.08343   -145983.45            0   -143923.28   -3182.4552 
   61500    499.93985      -145991            0   -143923.15   -2983.2665 
   61600    500.29415    -145992.2            0   -143922.89   -3130.6511 
   61700    498.90474   -145986.24            0   -143922.67   -3105.6097 
   61800    501.45132   -145996.47            0   -143922.37   -2969.7846 
   61900    499.94334   -145990.09            0   -143922.23    -3332.413 
   62000     500.9881   -145994.22            0   -143922.03   -2961.6803 
   62100    497.26844    -145978.6            0    -143921.8   -3180.7712 
   62200    500.79206   -145993.08            0   -143921.71    -3118.454 
   62300    504.31614   -146007.53            0   -143921.58   -3053.2133 
   62400    500.32148   -145990.71            0   -143921.28   -3099.2234 
   62500    500.74192   -145992.25            0   -143921.08    -3150.448 
   62600    498.29896   -145981.89            0   -143920.83   -3116.7018 
   62700    505.98625    -146013.6            0   -143920.74    -2940.763 
   62800    501.04902    -145993.1            0   -143920.66   -3233.3645 
   62900    503.16809   -146001.69            0   -143920.49   -3186.0432 
   63000    498.36022   -145981.49            0   -143920.17   -3005.4847 
   63100    500.13245   -145988.69            0   -143920.05   -3376.5247 
   63200    502.54144   -145998.44            0   -143919.83   -3131.5523 
   63300    502.25139   -145997.11            0    -143919.7   -3108.2948 
   63400    501.51151   -145993.77            0   -143919.42     -3154.04 
   63500    498.90182    -145982.8            0   -143919.24   -3111.7529 
   63600    501.93899   -145995.07            0   -143918.95   -3215.1995 
   63700    501.67496   -145993.69            0   -143918.66   -3092.3116 
   63800    501.20793   -145991.64            0   -143918.55   -3332.2313 
   63900    500.33929   -145987.91            0   -143918.41   -3069.8251 
   64000    497.95315   -145977.86            0   -143918.23   -3271.0194 
   64100    501.79768   -145993.73            0   -143918.19    -3014.232 
   64200     499.8566   -145985.52            0   -143918.02   -3154.5668 
   64300    498.40287   -145979.27            0   -143917.78   -3273.8246 
   64400    502.34067   -145995.51            0   -143917.73    -3032.078 
   64500    500.92195   -145989.45            0   -143917.54   -3144.3698 
   64600    498.59802   -145979.59            0   -143917.29   -3077.3719 
   64700    500.80402   -145988.45            0   -143917.02   -3099.6193 
   64800     502.1125   -145993.73            0   -143916.89   -3006.2644 
   64900    501.12583    -145989.4            0   -143916.65   -3247.2235 
   65000    502.93109   -145996.64            0   -143916.42   -3199.2194 
   65100    503.20945   -145997.65            0   -143916.28   -3136.7125 
   65200    502.36372   -145994.03            0   -143916.15   -3121.0026 
   65300    502.27376   -145993.57            0   -143916.07    -3220.732 
   65400     504.6667   -146003.12            0   -143915.72   -3086.9635 
   65500    500.41382   -145985.37            0   -143915.57   -3349.7822 
   65600    501.98045   -145991.59            0    -143915.3   -2965.6207 
   65700    500.62097   -145985.81            0   -143915.14   -3300.2526 
   65800    505.12699   -146004.27            0   -143914.97   -2955.2181 
   65900     500.1353    -145983.4            0   -143914.75   -3223.6448 
   66000    502.23273   -145991.86            0   -143914.52   -3138.1931 
   66100    500.55902   -145984.73            0   -143914.32   -3225.8229 
   66200    501.32045   -145987.62            0   -143914.06   -3085.6684 
   66300    498.52101    -145975.8            0   -143913.82   -3257.5212 
   66400    501.54414   -145988.11            0   -143913.62   -3170.9022 
   66500    502.55675   -145992.13            0   -143913.46   -3164.4132 
   66600    499.26305   -145978.31            0   -143913.26   -3255.9208 
   66700    500.73409   -145984.17            0   -143913.03   -3233.8245 
   66800    499.04711   -145976.97            0   -143912.81   -3104.6769 
   66900    499.18136   -145977.34            0   -143912.63   -3324.5822 
   67000     500.5638   -145982.79            0   -143912.36   -3277.3334 
   67100    498.72838   -145974.99            0   -143912.15   -3110.2229 
   67200    501.32934   -145985.64            0   -143912.05   -3354.5899 
   67300    502.76773    -145991.4            0   -143911.86   -3157.4039 
   67400    498.44961   -145973.31            0   -143911.62   -3331.2624 
   67500    503.22788   -145992.92            0   -143911.47   -3094.7888 
   67600    501.66806   -145986.15            0   -143911.15   -3259.3936 
   67700    500.48729    -145980.9            0   -143910.79   -3104.2923 
   67800    502.08424   -145987.36            0   -143910.64   -3178.0122 
   67900    502.04087   -145986.76            0   -143910.22   -3175.7857 
   68000    501.22734   -145983.14            0   -143909.97   -3160.9401 
   68100    500.29989    -145979.2            0   -143909.86   -3256.1901 
   68200    500.10412    -145978.2            0   -143909.67    -3179.649 
   68300    504.22072   -145995.04            0   -143909.48    -3097.382 
   68400    499.27056   -145974.19            0    -143909.1   -3320.6529 
   68500    503.63458   -145992.03            0    -143908.9   -3172.1911 
   68600    501.24312      -145982            0   -143908.76   -3284.0891 
   68700    507.34146   -146006.99            0   -143908.52   -3144.7522 
   68800    499.54227    -145974.5            0   -143908.29    -3368.035 
   68900    501.55275    -145982.6            0   -143908.08   -3186.3541 
   69000    500.32798   -145977.36            0   -143907.91   -3270.4134 
   69100    501.09206   -145980.33            0   -143907.72   -3148.4424 
   69200    501.44772   -145981.55            0   -143907.47   -3287.5029 
   69300    499.34327   -145972.73            0   -143907.35   -3203.9907 
   69400    502.14606   -145984.16            0   -143907.19   -3150.2237 
   69500    502.18897    -145984.2            0   -143907.05   -3194.2239 
   69600    501.24666   -145980.24            0   -143906.99   -3156.7228 
   69700    499.31762   -145972.05            0   -143906.78   -3440.3125 
   69800    503.87777   -145990.83            0    -143906.7   -3218.5695 
   69900    502.19812   -145983.78            0   -143906.59   -3135.0984 
   70000    500.66175    -145977.3            0   -143906.46   -3245.9806 
   70100    498.01115   -145966.16            0   -143906.29   -3276.9062 
   70200    501.32426   -145979.64            0   -143906.06   -3118.6409 
   70300    500.22747   -145974.82            0   -143905.78   -3161.6723 
   70400    502.04132   -145982.14            0    -143905.6   -3213.5631 
   70500    502.21952   -145982.63            0   -143905.35   -3378.0277 
   70600    502.66914    -145984.3            0   -143905.16   -3137.3569 
   70700    501.77255   -145980.28            0   -143904.86   -3196.4495 
   70800     503.7237   -145988.19            0   -143904.69   -3212.6145 
   70900    500.80536   -145975.92            0   -143904.49   -3261.6703 
   71000    501.82526   -145979.81            0   -143904.16   -3339.1545 
   71100    502.23394   -145981.37            0   -143904.03   -3199.7591 
   71200    502.85174   -145983.72            0   -143903.83   -3125.6147 
   71300    501.50167   -145977.94            0   -143903.63   -3220.0425 
   71400    503.50235   -145986.01            0   -143903.42   -3066.7308 
   71500    501.18549   -145976.24            0   -143903.24    -3339.299 
   71600    503.98583   -145987.65            0   -143903.07   -3210.5866 
   71700    504.32221   -145988.84            0   -143902.86   -3281.5315 
   71800     503.9768   -145987.12            0   -143902.58    -3245.855 
   71900    502.25161   -145979.82            0   -143902.41   -3205.0285 
   72000    502.85003   -145982.11            0   -143902.23   -3105.6148 
   72100    501.84627   -145977.84            0   -143902.11   -3380.7163 
   72200    502.58228   -145980.65            0   -143901.87   -3332.4228 
   72300    503.06682    -145982.5            0   -143901.72    -3091.326 
   72400    502.58784   -145980.38            0   -143901.58   -3252.5862 
   72500    503.09328    -145982.2            0   -143901.31   -3215.3849 
   72600    502.53501   -145979.69            0    -143901.1   -3268.2814 
   72700    503.46882   -145983.41            0   -143900.97   -3117.2427 
   72800    501.12204   -145973.51            0   -143900.77   -3156.2274 
   72900    502.70342   -145979.94            0   -143900.66   -3185.7958 
   73000    501.91544   -145976.56            0   -143900.54   -3425.2136 
   73100    503.80966   -145984.17            0   -143900.32   -3003.3569 
   73200    500.63569   -145970.92            0    -143900.2   -3222.9321 
   73300    503.19273   -145981.34            0   -143900.04   -3238.7156 
   73400     503.6655   -145983.19            0   -143899.93   -3207.0704 
   73500    503.30295   -145981.45            0    -143899.7   -3089.8648 
   73600    504.61443   -145986.69            0    -143899.5   -3038.3773 
   73700    502.56299   -145977.89            0   -143899.19   -3239.1568 
   73800    504.76468   -145986.87            0   -143899.07    -3100.099 
   73900    503.03105   -145979.55            0   -143898.91   -3167.9614 
   74000    502.82312   -145978.43            0   -143898.65   -3146.7212 
   74100    502.60383   -145977.43            0   -143898.56   -3178.9355 
   74200    501.27818   -145971.77            0   -143898.38    -3215.555 
   74300    502.82791   -145977.98            0   -143898.19   -2921.1498 
   74400    502.14095   -145975.02            0   -143898.07   -3132.5291 
   74500    501.12647   -145970.68            0   -143897.92    -3174.561 
   74600    506.52412   -145992.76            0   -143897.67   -3096.7942 
   74700    502.30602   -145975.07            0   -143897.44   -3195.9371 
   74800    505.27579   -145987.12            0    -143897.2   -3055.8721 
   74900    500.75852   -145968.26            0   -143897.03    -3311.827 
   75000    504.14034   -145982.13            0    -143896.9   -2995.8564 
   75100     501.0098    -145969.1            0   -143896.83   -3274.5924 
   75200    504.39193   -145982.88            0   -143896.62   -3047.5755 
   75300    503.52394   -145979.03            0   -143896.36   -3081.1103 
   75400    502.72687   -145975.48            0    -143896.1   -3168.1636 
   75500    503.43583   -145978.21            0    -143895.9   -3043.5286 
   75600    503.47789   -145978.24            0   -143895.76   -3228.6471 
   75700    501.55116   -145970.08            0   -143895.57    -3213.965 
   75800    506.00184   -145988.24            0   -143895.31   -3016.7088 
   75900    503.43902   -145977.44            0   -143895.12   -3197.2008 
   76000    502.47101   -145973.27            0   -143894.95   -3293.3673 
   76100    502.98421   -145975.14            0    -143894.7   -3119.8791 
   76200    503.59326    -145977.6            0   -143894.64   -3071.6949 
   76300    502.95305   -145974.78            0   -143894.47   -3124.4933 
   76400    502.92337   -145974.51            0   -143894.32   -2999.7499 
   76500    503.25704   -145975.79            0   -143894.22   -3174.8218 
   76600     503.5723    -145976.8            0   -143893.92   -3160.9334 
   76700    501.41514   -145967.74            0   -143893.79   -3223.5469 
   76800    505.68843   -145985.28            0   -143893.66   -3129.1848 
   76900    504.45603   -145979.93            0   -143893.41   -3216.4153 
   77000    500.05464   -145961.48            0   -143893.16   -3193.2496 
   77100    502.34438   -145970.85            0   -143893.05    -3069.179 
   77200    505.07085   -145981.86            0   -143892.79   -3169.2787 
   77300    503.73232   -145976.06            0   -143892.52   -3073.4596 
   77400    505.66324   -145983.89            0   -143892.37   -3172.4336 
   77500    499.98282   -145960.31            0   -143892.28   -3270.6595 
   77600    504.78346      -145980            0   -143892.12   -3050.4117 
   77700    503.47302   -145974.34            0   -143891.88   -3142.4175 
   77800    504.53461   -145978.49            0   -143891.64    -3122.423 
   77900    502.27291   -145968.98            0   -143891.48   -3273.1199 
   78000    504.24573   -145976.98            0   -143891.32   -3015.2448 
   78100    503.89584   -145975.34            0   -143891.13   -3110.9266 
   78200    503.53671    -145973.7            0   -143890.97   -3313.6911 
   78300    504.54238   -145977.64            0   -143890.75   -3220.9267 
   78400    502.76693   -145970.16            0   -143890.61   -3138.5662 
   78500    505.52647   -145981.37            0   -143890.41    -3310.569 
   78600    502.45895   -145968.43            0   -143890.16   -3204.5985 
   78700    505.69031   -145981.55            0   -143889.92   -3085.1526 
   78800    499.18253   -145954.39            0   -143889.67   -3323.8332 
   78900    504.49234   -145976.23            0   -143889.55   -2963.2727 
   79000    502.02992   -145965.87            0   -143889.37   -3262.4292 
   79100    505.39472   -145979.68            0   -143889.27   -3241.8697 
   79200    504.94138   -145977.62            0   -143889.08   -2989.8103 
   79300    501.08151   -145961.43            0   -143888.86   -3009.4242 
   79400    504.10938   -145973.86            0   -143888.76   -3130.4961 
   79500    503.84186   -145972.46            0   -143888.47    -2992.649 
   79600    502.58395   -145966.98            0   -143888.19   -3115.5546 
   79700    502.19518   -145965.07            0   -143887.89   -3084.3808 
   79800    502.23837   -145965.13            0   -143887.78   -3101.3488 
   79900     505.6446   -145979.09            0   -143887.65   -3078.0253 
   80000    504.65832   -145974.77            0    -143887.4   -3084.3822 
   80100    503.71042   -145970.71            0   -143887.26   -3248.4883 
   80200    506.30371   -145981.25            0   -143887.08   -3053.0403 
   80300    505.69178   -145978.67            0   -143887.03   -3114.8604 
   80400    504.20724   -145972.38            0   -143886.88   -3102.0504 
   80500      503.831   -145970.63            0   -143886.68   -3253.7584 
   80600    506.72283   -145982.44            0   -143886.54     -3085.61 
   80700    504.80029    -145974.3            0   -143886.34   -3259.0224 
   80800    504.53749   -145972.87            0      -143886    -3128.796 
   80900    503.52383   -145968.55            0   -143885.88   -2926.3765 
   81000    503.33507   -145967.58            0   -143885.69   -3209.7134 
   81100    501.87128   -145961.31            0   -143885.47    -3165.672 
   81200    504.45354   -145971.75            0   -143885.23   -3212.0923 
   81300    505.86418   -145977.46            0   -143885.11   -3142.0874 
   81400    503.61805   -145968.02            0   -143884.95   -3338.3085 
   81500     504.0805   -145969.74            0   -143884.76   -3015.1751 
   81600    505.02469   -145973.54            0   -143884.66   -3189.3223 
   81700    505.85174   -145976.64            0   -143884.34   -3145.7716 
   81800     505.8019   -145976.15            0   -143884.06   -3168.4712 
   81900    506.29655   -145977.98            0   -143883.84   -3115.7802 
   82000    505.90576   -145976.12            0   -143883.59   -2961.6831 
   82100    508.21487   -145985.59            0   -143883.51   -3163.1555 
   82200    504.58834   -145970.34            0   -143883.27   -3169.4465 
   82300    504.89574   -145971.43            0   -143883.09   -3074.6037 
   82400    506.17105    -145976.6            0   -143882.98   -3148.4566 
   82500    504.11582   -145967.88            0   -143882.76   -3146.3684 
   82600    502.46977   -145960.92            0   -143882.61   -3273.2952 
   82700    505.06659   -145971.43            0   -143882.38   -3163.0257 
   82800    504.74299   -145969.92            0    -143882.2   -2999.3085 
   82900    500.90098   -145953.82            0      -143882   -3343.0574 
   83000    507.69637   -145981.85            0   -143881.92   -3039.2968 
   83100    502.36842   -145959.69            0   -143881.79   -3274.1898 
   83200    506.09093   -145974.89            0    -143881.6   -3054.2713 
   83300    504.91991   -145969.93            0   -143881.48   -3145.6547 
   83400    505.72154   -145973.14            0   -143881.37   -3181.8629 
   83500     503.4629   -145963.59            0   -143881.17   -3192.1708 
   83600    506.62403   -145976.48            0   -143880.98   -3056.4062 
   83700    502.40688   -145958.86            0    -143880.8   -3169.3449 
   83800    503.02349   -145961.21            0    -143880.6    -3179.392 
   83900    505.42567   -145970.96            0   -143880.42   -3140.6031 
   84000    505.87895   -145972.61            0   -143880.19   -3192.6351 
   84100    505.86142   -145972.43            0   -143880.09   -3090.8018 
   84200    502.53505   -145958.42            0   -143879.83   -3251.6981 
   84300    504.23042   -145965.29            0    -143879.7   -3212.1665 
   84400    504.95209   -145968.12            0   -143879.54   -3111.1222 
   84500    505.81658   -145971.52            0   -143879.36   -3207.2495 
   84600    504.02754   -145963.94            0   -143879.18   -3062.1943 
   84700    503.54187   -145961.77            0   -143879.02   -3188.3092 
   84800    506.76377   -145974.89            0   -143878.82   -3110.5608 
   84900    504.61262   -145965.74            0   -143878.57   -2954.0151 
   85000    503.16499   -145959.56            0   -143878.37   -3045.7113 
   85100    505.55948   -145969.31            0   -143878.22   -3279.1347 
   85200    506.64116   -145973.62            0   -143878.06   -3102.2714 
   85300    504.92408   -145966.35            0   -143877.88   -3116.3437 
   85400    507.43992   -145976.52            0   -143877.65   -3197.5418 
   85500    503.84107   -145961.42            0   -143877.43   -3265.8144 
   85600    506.37031    -145971.7            0   -143877.25   -3129.9579 
   85700     508.6585   -145981.08            0   -143877.17   -3057.7193 
   85800    507.11729   -145974.49            0   -143876.95   -3198.9442 
   85900    506.34445   -145971.08            0   -143876.74   -3075.9747 
   86000    505.13419   -145965.98            0   -143876.65   -3203.3976 
   86100    507.62048   -145976.26            0   -143876.64    -3273.329 
   86200    506.00753   -145969.46            0   -143876.51   -3108.9941 
   86300    505.00575   -145965.15            0   -143876.35   -3390.9469 
   86400    504.48597   -145962.81            0   -143876.15   -3072.5807 
   86500    504.89924    -145964.3            0   -143875.93   -3315.9903 
   86600    505.29272    -145965.8            0   -143875.81    -3271.196 
   86700    507.06392   -145972.99            0   -143875.67   -3158.2378 
   86800    505.41329   -145965.97            0   -143875.48   -3460.6163 
   86900    506.43232   -145970.01            0   -143875.31   -2999.4391 
   87000     507.0505   -145972.41            0   -143875.15   -3332.0875 
   87100    508.82719   -145979.59            0   -143874.98   -3144.7502 
   87200    505.58976   -145965.99            0   -143874.77   -3254.7947 
   87300    505.04692   -145963.62            0   -143874.65   -3267.6663 
   87400    505.93197   -145967.13            0    -143874.5   -3092.4992 
   87500    505.19846   -145963.94            0   -143874.34   -3231.2446 
   87600     506.1808   -145967.75            0   -143874.09   -3260.1228 
   87700    505.34579   -145964.14            0   -143873.93   -3265.1399 
   87800     505.5894   -145964.97            0   -143873.76   -3156.6122 
   87900      508.063   -145975.13            0   -143873.68   -3118.1646 
   88000    507.60694   -145973.13            0   -143873.57   -3361.8543 
   88100    505.43014   -145963.96            0    -143873.4   -3287.5957 
   88200    506.25355   -145967.22            0   -143873.25   -3077.9962 
   88300     505.3738   -145963.35            0   -143873.03   -3240.3718 
   88400     505.9278   -145965.58            0   -143872.97   -3168.4442 
   88500    506.61701   -145968.36            0   -143872.89   -3206.4613 
   88600    505.79431   -145964.78            0   -143872.72   -3196.8793 
   88700    505.38125   -145962.88            0   -143872.53   -3059.4298 
   88800    506.63169   -145967.91            0   -143872.38   -3213.0253 
   88900    505.58629   -145963.45            0   -143872.25   -3037.8284 
   89000    503.06037    -145952.9            0   -143872.15   -3128.6485 
   89100    508.61144   -145975.79            0   -143872.07   -2854.4224 
   89200    504.68286   -145959.28            0   -143871.81    -3193.103 
   89300    505.19772   -145961.22            0   -143871.62   -3187.4364 
   89400    507.03507   -145968.66            0   -143871.46   -3140.7704 
   89500    506.32713   -145965.56            0   -143871.29   -3102.4812 
   89600    506.64326   -145966.73            0   -143871.15   -2995.8205 
   89700    505.30042   -145960.95            0   -143870.93   -3291.4809 
   89800    507.68946   -145970.54            0   -143870.64   -2831.6817 
   89900    503.53783   -145953.16            0   -143870.43   -3092.9975 
   90000    507.65652   -145970.07            0   -143870.31   -3073.3782 
   90100    506.15696   -145963.68            0   -143870.12    -3120.114 
   90200    504.35032   -145955.95            0   -143869.86   -3094.4453 
   90300    506.88953    -145966.3            0   -143869.71   -2909.0918 
   90400    503.11576   -145950.51            0   -143869.53   -3199.6978 
   90500    505.99834   -145962.31            0   -143869.41   -3046.5227 
   90600    507.50427   -145968.48            0   -143869.34    -2979.919 
   90700     505.3755   -145959.33            0   -143868.99   -3217.1155 
   90800    506.33947   -145963.22            0    -143868.9   -3038.1398 
   90900    505.93969   -145961.38            0   -143868.72   -3149.2989 
   91000    508.70324   -145972.73            0   -143868.64    -2975.437 
   91100    503.65143   -145951.67            0   -143868.46   -3382.3895 
   91200    510.90606   -145981.59            0   -143868.38   -2922.0612 
   91300    502.82704   -145947.97            0   -143868.18   -3156.9333 
   91400    505.32792   -145958.19            0   -143868.05   -3106.3534 
   91500    507.92419   -145968.72            0   -143867.85   -2960.6978 
   91600    505.15138   -145957.08            0   -143867.67   -3257.4117 
   91700    509.24016    -145973.8            0   -143867.48   -2979.0853 
   91800    505.92887   -145959.89            0   -143867.27   -3259.5107 
   91900    509.77542   -145975.68            0   -143867.15   -3152.0121 
   92000    507.83542   -145967.45            0   -143866.94   -3117.4154 
   92100    508.16932   -145968.67            0   -143866.78   -3050.7826 
   92200    505.18178   -145956.06            0   -143866.53   -3275.7734 
   92300    507.73025   -145966.48            0    -143866.4   -2994.1366 
   92400    506.81907   -145962.48            0   -143866.18   -3237.9075 
   92500    505.50327   -145956.91            0   -143866.05    -3063.753 
   92600    505.56844   -145957.03            0    -143865.9   -3128.0415 
   92700     504.0747   -145950.67            0   -143865.72   -3229.8797 
   92800     510.1124   -145975.51            0   -143865.58    -3110.616 
   92900    508.79126   -145969.84            0   -143865.38    -3067.694 
   93000    508.31108   -145967.65            0   -143865.18   -3116.1745 
   93100     506.8943   -145961.65            0   -143865.04    -3212.661 
   93200    506.00833   -145957.83            0   -143864.88   -3109.9163 
   93300    504.35601   -145950.84            0   -143864.73   -3103.6478 
   93400    508.70248    -145968.7            0   -143864.61   -3056.1409 
   93500     506.9589   -145961.39            0   -143864.51   -3123.5963 
   93600     505.1597    -145953.8            0   -143864.36   -3142.2246 
   93700    505.82401   -145956.39            0   -143864.21   -3025.1829 
   93800    508.72337   -145968.14            0   -143863.97   -3052.9673 
   93900    505.30789   -145953.82            0   -143863.77   -3146.7846 
   94000    506.80058   -145959.79            0   -143863.57   -3155.2801 
   94100    507.07289   -145960.74            0   -143863.38    -3022.986 
   94200    508.69753   -145967.33            0   -143863.26   -3183.8874 
   94300    504.51644   -145949.68            0   -143862.91   -3067.1076 
   94400    503.35668   -145944.63            0   -143862.65    -3224.056 
   94500    506.11743   -145955.91            0   -143862.51    -3009.165 
   94600      506.957   -145959.29            0   -143862.42   -3160.6256 
   94700    505.56177   -145953.41            0   -143862.31   -3152.6678 
   94800    507.22346   -145960.11            0   -143862.13    -3158.283 
   94900    505.51564   -145952.84            0   -143861.93   -3182.0613 
   95000     509.3302   -145968.49            0    -143861.8   -2949.5945 
   95100    505.49196   -145952.43            0   -143861.61   -3418.8563 
   95200    507.77067    -145961.6            0   -143861.36   -3244.6953 
   95300    505.92366   -145953.88            0   -143861.28   -3181.0484 
   95400    508.00132   -145962.42            0   -143861.23   -3349.9891 
   95500    506.68354    -145956.8            0   -143861.06   -3080.5611 
   95600    506.79837   -145957.18            0   -143860.96   -3162.3709 
   95700    508.17836   -145962.72            0   -143860.79   -3250.4266 
   95800    506.38558   -145955.12            0   -143860.61   -3131.9304 
   95900    506.11401   -145953.85            0   -143860.46    -3325.546 
   96000     508.4098   -145963.19            0   -143860.31   -3075.1396 
   96100    505.87581   -145952.61            0   -143860.21   -3325.2085 
   96200    505.62161   -145951.41            0   -143860.06   -3250.6389 
   96300    509.74051   -145968.32            0   -143859.93   -3076.1594 
   96400    504.96168   -145948.42            0    -143859.8   -3406.1024 
   96500    508.55794   -145963.01            0   -143859.52   -3147.5371 
   96600    507.93565   -145960.26            0   -143859.34   -3275.4103 
   96700     507.4055   -145957.87            0   -143859.14    -3009.898 
   96800    508.07781   -145960.56            0   -143859.05   -3393.5931 
   96900    509.57074   -145966.57            0   -143858.88   -3025.5076 
   97000    507.42817   -145957.63            0   -143858.81   -3256.5913 
   97100    509.16156   -145964.66            0   -143858.67   -3109.8686 
   97200    505.49386   -145949.26            0   -143858.44   -3139.5676 
   97300    508.28836   -145960.75            0   -143858.37   -3194.5891 
   97400    506.71189   -145953.96            0    -143858.1   -3093.4185 
   97500    507.38268   -145956.62            0   -143857.99   -3085.4269 
   97600    507.17644   -145955.62            0   -143857.84    -3231.128 
   97700     506.9725   -145954.67            0   -143857.73   -3050.1492 
   97800    505.70037   -145949.26            0   -143857.58   -3276.4605 
   97900    510.05373   -145967.09            0   -143857.41   -3192.4481 
   98000    506.21185   -145951.09            0   -143857.29   -3106.6403 
   98100    509.48524   -145964.41            0   -143857.07     -3184.81 
   98200    508.14264   -145958.66            0   -143856.89   -3211.0463 
   98300    508.18361   -145958.71            0   -143856.76   -3155.6877 
   98400    506.71995   -145952.57            0   -143856.68   -3112.6057 
   98500    509.57867   -145964.14            0   -143856.43   -3077.7445 
   98600    507.12511   -145953.83            0   -143856.26   -3178.5503 
   98700    507.27582   -145954.21            0   -143856.01    -3147.734 
   98800    508.62843   -145959.64            0   -143855.85   -3004.0647 
   98900     506.7283   -145951.57            0   -143855.64   -3140.2881 
   99000    510.51698    -145967.1            0    -143855.5   -3103.7087 
   99100    504.90795   -145943.73            0   -143855.33   -3244.7698 
   99200    510.47773   -145966.63            0   -143855.19   -2942.2906 
   99300    508.80706   -145959.54            0   -143855.01   -3184.1443 
   99400    509.74063   -145963.25            0   -143854.87   -3125.4934 
   99500    508.78363   -145959.13            0    -143854.7   -3057.2332 
   99600    509.68338    -145962.7            0   -143854.55   -3205.7671 
   99700    508.62833   -145958.08            0   -143854.29   -2813.4021 
   99800    508.36168    -145956.8            0   -143854.12   -3241.8116 
   99900    505.62079   -145945.34            0   -143853.99   -3027.9294 
  100000    509.02245   -145959.19            0   -143853.77   -2886.1312 
  100100    504.79501    -145941.6            0   -143853.67   -3375.0928 
  100200    510.56281   -145965.35            0   -143853.56   -3043.6819 
  100300    509.28785   -145959.97            0   -143853.45   -3067.0287 
  100400    504.51493   -145940.07            0   -143853.29   -3172.4386 
  100500    505.45699   -145943.82            0   -143853.15   -3040.0433 
  100600    507.65442   -145952.71            0   -143852.95   -3153.2877 
  100700    507.75545   -145953.02            0   -143852.85   -3087.2392 
  100800    506.42522   -145947.34            0   -143852.66   -3057.2607 
  100900    507.46695   -145951.56            0   -143852.58   -3144.0728 
  101000    509.46322   -145959.61            0   -143852.37   -2994.2211 
  101100     506.9825    -145949.2            0   -143852.22   -3064.0449 
  101200     505.6639    -145943.6            0   -143852.08   -3158.2621 
  101300    507.73243   -145952.02            0   -143851.94   -2936.7061 
  101400    507.07033   -145948.96            0   -143851.62   -3442.5163 
  101500    510.42706   -145962.75            0   -143851.52   -2940.3753 
  101600    508.74398   -145955.68            0   -143851.42   -3176.1111 
  101700    507.54742   -145950.56            0   -143851.25   -3072.7935 
  101800    507.08536   -145948.48            0   -143851.07   -3016.5608 
  101900    507.16103   -145948.72            0   -143851.01   -3064.9322 
  102000    504.53938   -145937.76            0   -143850.88   -3133.3747 
  102100    507.97158    -145951.9            0   -143850.83   -3081.8579 
  102200    509.03264   -145956.18            0   -143850.72   -2966.7085 
  102300    505.83014   -145942.86            0   -143850.65   -3097.4391 
  102400    508.17084   -145952.39            0   -143850.49   -3015.1056 
  102500    505.48813   -145941.16            0   -143850.36   -3058.3505 
  102600    506.44508   -145944.99            0   -143850.23   -3193.0045 
  102700     510.7701   -145962.72            0   -143850.07   -2967.3311 
  102800    506.45752   -145944.77            0   -143849.97   -3121.4773 
  102900    509.21031   -145955.82            0   -143849.62   -2994.6051 
  103000    506.17476   -145943.14            0    -143849.5   -3261.5122 
  103100    510.64358   -145961.46            0   -143849.33   -3022.4225 
  103200    509.63567   -145957.12            0   -143849.17   -3348.0413 
  103300    511.56369   -145964.97            0   -143849.04    -2887.122 
  103400    511.10626   -145962.89            0   -143848.85   -3214.9916 
  103500    507.68134   -145948.59            0   -143848.72   -3034.5553 
  103600    508.80748   -145953.09            0   -143848.56   -2991.7747 
  103700     505.2822   -145938.41            0   -143848.47   -3052.9119 
  103800    509.66063   -145956.29            0   -143848.23   -2957.9613 
  103900    508.57668    -145951.7            0   -143848.13   -3167.1652 
  104000    507.41286   -145946.75            0   -143847.99   -3033.9717 
  104100    509.97643   -145957.25            0   -143847.88   -3053.3994 
  104200    508.10982   -145949.36            0   -143847.71   -3095.6434 
  104300    507.21093    -145945.4            0   -143847.48   -3313.9126 
  104400    512.47945   -145967.11            0   -143847.39    -3083.983 
  104500    510.24518   -145957.71            0   -143847.24   -3106.5001 
  104600    508.19754   -145949.04            0   -143847.03   -3060.1049 
  104700    508.35045   -145949.49            0   -143846.86    -3175.555 
  104800    506.64686   -145942.33            0   -143846.74   -3131.0459 
  104900     506.9468   -145943.36            0   -143846.53   -3100.8707 
  105000    506.63658    -145941.9            0   -143846.35   -3082.1215 
  105100    506.13104   -145939.68            0   -143846.22   -3099.5152 
  105200    507.04025   -145943.27            0   -143846.05   -3024.1911 
  105300    508.51039   -145949.15            0   -143845.86   -2964.7763 
  105400    506.21308   -145939.47            0   -143845.68   -3247.1769 
[...]
  975000    775.54774   -144736.24            0   -141528.43   -3600.0215 
  975100    767.35762   -144701.95            0   -141528.01    -3776.185 
  975200    777.95174   -144745.53            0   -141527.77   -3483.5221 
  975300    778.09521   -144745.78            0   -141527.43   -3773.1979 
  975400    775.10996   -144733.13            0   -141527.13   -3518.9053 
  975500    769.33326   -144708.88            0   -141526.76   -3756.3258 
  975600    774.09044   -144728.25            0   -141526.46    -3768.719 
  975700    778.73136   -144747.16            0   -141526.18   -3503.0363 
  975800    773.38011    -144724.7            0   -141525.84   -3778.1452 
  975900    770.94025   -144714.12            0   -141525.36   -3794.1697 
  976000    772.86002   -144721.73            0   -141525.03   -3715.8637 
  976100    776.08728    -144734.8            0   -141524.75   -3311.8187 
  976200    772.88832   -144721.23            0   -141524.42   -3647.7984 
  976300    779.17264   -144746.92            0   -141524.11   -3455.0658 
  976400    773.41234   -144722.48            0   -141523.49   -3666.9252 
  976500    777.50999   -144739.09            0   -141523.15   -3340.3748 
  976600    777.28374   -144737.72            0   -141522.72   -3299.1096 
  976700    775.60038   -144730.29            0   -141522.26   -3508.9723 
  976800    772.04201   -144715.19            0   -141521.87   -3466.8575 
  976900    777.07813   -144735.57            0   -141521.43   -3367.3523 
  977000     777.4583   -144736.65            0   -141520.93   -3502.1649 
  977100    777.13467   -144735.01            0   -141520.63   -3668.8552 
  977200    774.52807   -144723.79            0   -141520.19   -3353.1846 
  977300    771.40165   -144710.43            0   -141519.76   -3490.7375 
  977400    775.02059   -144725.02            0   -141519.38   -3639.3231 
  977500    775.10466   -144725.14            0   -141519.16   -3449.1561 
  977600    770.71945   -144706.63            0   -141518.78   -3690.5086 
  977700    777.64686   -144734.91            0   -141518.41   -3549.6989 
  977800    771.76545    -144710.1            0   -141517.92   -3671.8023 
  977900    773.05186   -144715.12            0   -141517.63   -3728.7033 
  978000    775.91651    -144726.7            0   -141517.36   -3674.2665 
  978100    773.40301      -144716            0   -141517.05   -3506.0616 
  978200     776.7319    -144729.4            0   -141516.68   -3425.0106 
  978300    773.69014   -144716.35            0   -141516.22   -3761.0745 
  978400    774.24447   -144718.43            0      -141516   -3557.1519 
  978500    776.38387    -144726.8            0   -141515.53   -3531.4881 
  978600    773.05927   -144712.66            0   -141515.13   -3667.4864 
  978700    777.80365   -144731.88            0   -141514.73    -3540.783 
  978800    775.56904   -144722.22            0   -141514.31   -3685.5235 
  978900    776.52026   -144725.77            0   -141513.93     -3861.95 
  979000    774.77993   -144718.13            0   -141513.49    -3919.637 
  979100    775.70677   -144721.67            0    -141513.2   -3468.5113 
  979200    772.47805   -144707.86            0   -141512.74   -3589.8974 
  979300    775.03736    -144718.1            0   -141512.39   -3854.9516 
  979400     778.1862   -144730.67            0   -141511.94   -3579.9846 
  979500    779.05768   -144733.99            0   -141511.65   -3546.2742 
  979600    772.36684   -144705.93            0   -141511.27    -3687.865 
  979700    773.45884   -144710.02            0   -141510.84   -3960.9244 
  979800     780.4219    -144738.4            0   -141510.42   -3521.5284 
  979900    775.92921   -144719.29            0    -141509.9   -3951.2547 
  980000    778.96089   -144731.44            0    -141509.5   -3693.7025 
  980100    778.90481   -144730.95            0   -141509.25   -3747.7639 
  980200    776.67294   -144721.25            0   -141508.78   -3853.9874 
  980300    776.25372   -144718.98            0   -141508.25   -3830.2745 
  980400    781.14577   -144738.88            0   -141507.91   -3733.3245 
  980500    776.53144   -144719.24            0   -141507.35   -3645.5381 
  980600    772.02481   -144700.13            0   -141506.88   -3694.7587 
  980700    775.06682   -144712.29            0   -141506.47   -3728.5386 
  980800    779.24737   -144729.14            0   -141506.02    -3661.098 
  980900     775.0647   -144711.26            0   -141505.44   -3732.7801 
  981000    775.27164   -144711.84            0   -141505.17   -3667.2213 
  981100    775.55841   -144712.84            0   -141504.98   -3879.9999 
  981200    779.60795   -144729.28            0   -141504.67   -3759.0857 
  981300    773.54559   -144703.71            0   -141504.18   -3889.6824 
  981400    779.76912    -144729.1            0   -141503.82   -3582.7534 
  981500    780.12899   -144730.31            0   -141503.54   -3511.7156 
  981600    775.85235   -144712.01            0   -141502.93   -3568.6842 
  981700    775.98718   -144712.23            0    -141502.6   -3720.2793 
  981800    778.19377   -144720.93            0   -141502.17   -3715.0444 
  981900    779.24131   -144724.89            0   -141501.79   -3626.0595 
  982000    772.81164   -144697.82            0   -141501.32   -3653.2122 
  982100    781.59359   -144734.13            0    -141501.3   -3541.7721 
  982200    775.94607   -144710.33            0   -141500.87    -3812.779 
  982300    779.61416   -144725.01            0   -141500.38    -3627.584 
  982400    779.05461   -144722.35            0   -141500.03   -3777.7912 
  982500    779.93729   -144725.56            0   -141499.59   -3521.0667 
  982600    772.68512   -144695.14            0   -141499.16    -3784.333 
  982700     776.8332    -144711.9            0   -141498.76   -3594.7679 
  982800      779.061   -144720.73            0   -141498.38   -3684.0595 
  982900     776.9937   -144711.92            0   -141498.12   -3855.3609 
  983000    782.77773   -144735.33            0   -141497.61    -3675.541 
  983100    774.60981   -144701.29            0   -141497.35   -3915.0148 
  983200     783.0132    -144735.7            0   -141497.01    -3698.869 
  983300    776.98336   -144710.34            0   -141496.58   -3809.3965 
  983400    780.08164   -144722.61            0   -141496.04   -3753.2835 
  983500     771.9656   -144688.64            0   -141495.64   -3701.4311 
  983600    780.31765    -144722.6            0   -141495.06   -3729.6327 
  983700    779.90261   -144720.52            0   -141494.69   -3699.4606 
  983800     776.1508   -144704.54            0   -141494.23   -3703.5321 
  983900    779.68657    -144718.8            0   -141493.86   -3626.5928 
  984000     775.1564   -144699.77            0   -141493.57   -3818.2249 
  984100    780.52461   -144721.74            0   -141493.34   -3445.5731 
  984200     777.6206   -144709.27            0   -141492.88   -3770.0883 
  984300    776.91881   -144705.93            0   -141492.45   -3638.5402 
  984400    782.95707   -144730.49            0   -141492.03   -3623.6459 
  984500    779.90698   -144717.42            0   -141491.58   -3656.4115 
  984600    773.81369   -144691.87            0   -141491.22   -3619.7604 
  984700    779.89103   -144716.74            0   -141490.95   -3404.9937 
  984800    780.15063   -144717.44            0   -141490.59   -3686.2499 
  984900    774.64995    -144694.1            0      -141490   -3663.8677 
  985000    777.66224   -144706.02            0   -141489.46   -3870.4016 
  985100    780.55426   -144717.66            0   -141489.13   -3422.4922 
  985200     776.6807   -144701.15            0   -141488.65   -3947.4428 
  985300    780.85416   -144718.15            0   -141488.39   -3534.9603 
  985400    775.85696   -144697.07            0   -141487.97   -3599.7823 
  985500    774.67965   -144691.79            0   -141487.57   -3746.9258 
  985600    781.01527   -144717.64            0    -141487.2   -3485.9412 
  985700     776.5502    -144698.7            0   -141486.73   -3897.8824 
  985800    780.52693   -144714.76            0   -141486.34   -3402.3515 
  985900    779.70238    -144710.9            0    -141485.9   -3743.3063 
  986000    779.26762   -144708.74            0   -141485.54   -3475.7134 
  986100    777.60743   -144701.61            0   -141485.28   -3677.0138 
  986200    776.58131   -144697.07            0   -141484.97   -3540.1816 
  986300    774.88561   -144689.57            0   -141484.49   -3386.4483 
  986400     779.6256   -144708.76            0   -141484.07   -3503.4081 
  986500      782.592   -144720.65            0   -141483.69    -3759.459 
  986600     781.7891   -144717.08            0   -141483.44   -3714.6932 
  986700    780.84439   -144712.61            0   -141482.89   -3454.5194 
  986800    779.88402   -144708.33            0   -141482.58    -3788.757 
  986900    781.99026   -144716.62            0   -141482.16    -3811.109 
  987000    781.84177    -144715.6            0   -141481.75    -3605.817 
  987100    777.89654   -144698.82            0   -141481.29   -3764.7373 
  987200     778.4145   -144700.67            0   -141480.99   -3730.2693 
  987300    776.83481   -144693.79            0   -141480.65   -3491.6736 
  987400    777.28216   -144695.09            0    -141480.1   -3698.0225 
  987500    785.10884   -144727.04            0   -141479.68   -3604.2158 
  987600    777.73432   -144696.21            0   -141479.35   -3661.7481 
  987700     781.5074   -144711.36            0    -141478.9   -3608.4218 
  987800    778.20821   -144697.31            0   -141478.49    -3554.963 
  987900    779.48996   -144702.32            0    -141478.2   -3537.1434 
  988000    777.75532    -144694.7            0   -141477.75   -3817.0612 
  988100    777.86755   -144694.65            0   -141477.24   -3502.6799 
  988200    782.07272   -144711.77            0   -141476.96   -3532.6115 
  988300    780.80778   -144705.99            0   -141476.41   -3725.3203 
  988400    779.47865    -144700.1            0   -141476.03   -3403.8527 
  988500    777.24844   -144690.26            0    -141475.4   -3567.1785 
  988600    777.48086   -144690.91            0    -141475.1   -3536.0472 
  988700    784.56331      -144720            0   -141474.89   -3747.7612 
  988800    780.72018   -144703.72            0   -141474.51   -3920.3741 
  988900    783.15898   -144713.32            0   -141474.02   -3580.4339 
  989000     781.4231   -144705.67            0   -141473.55   -3644.4561 
  989100    779.32442   -144696.61            0   -141473.17   -3654.7696 
  989200    779.49928   -144696.95            0   -141472.79   -3469.7912 
  989300    783.58317   -144713.24            0   -141472.18   -3514.4223 
  989400    781.41012   -144703.85            0   -141471.78   -3885.7636 
  989500    782.82735   -144709.36            0   -141471.44    -3519.084 
  989600    780.83868   -144700.65            0   -141470.95   -3559.6601 
  989700    780.70876   -144699.57            0   -141470.41    -3347.603 
  989800    783.06888   -144708.85            0   -141469.92   -4024.5366 
  989900    785.07725   -144716.73            0    -141469.5   -3346.6405 
  990000    778.67455   -144689.96            0   -141469.21   -4009.3747 
  990100    782.06725   -144703.56            0   -141468.78   -3421.5803 
  990200    780.53007   -144696.81            0   -141468.38   -3567.3697 
  990300    779.99752   -144694.16            0   -141467.93    -3800.919 
  990400    782.57128   -144704.41            0   -141467.54   -4013.7544 
  990500    783.64548   -144708.58            0   -141467.27   -3827.6942 
  990600    785.92343   -144717.34            0   -141466.61   -3709.2949 
  990700    785.13067   -144713.68            0   -141466.23   -3597.8829 
  990800      780.858   -144695.54            0   -141465.75   -3708.4907 
  990900    781.62733   -144698.23            0   -141465.27    -3684.073 
  991000    778.22107   -144683.78            0   -141464.91   -3926.7767 
  991100     782.3554   -144700.65            0   -141464.68   -3796.5587 
  991200    779.20071   -144687.12            0    -141464.2    -3910.166 
  991300    777.22678   -144678.51            0   -141463.75    -4081.213 
  991400    782.58514   -144700.15            0   -141463.22   -3976.7228 
  991500    788.02737   -144722.22            0   -141462.79   -3788.0517 
  991600    784.56992   -144707.45            0   -141462.32   -4006.9304 
  991700    778.33303   -144681.32            0   -141461.98   -4014.4253 
  991800    782.04954    -144696.3            0   -141461.59   -3745.4273 
  991900    787.53356   -144718.46            0   -141461.06   -3838.6798 
  992000    777.16075   -144675.11            0   -141460.62   -3971.4115 
  992100    780.42343   -144688.32            0   -141460.33   -3844.2142 
  992200    780.43063   -144687.99            0   -141459.97   -3946.2433 
  992300    781.07731   -144690.27            0   -141459.58   -3663.1534 
  992400    777.94739   -144676.75            0   -141459.01   -3917.9663 
  992500    782.64681   -144695.78            0    -141458.6   -3837.2003 
  992600    783.72688   -144699.83            0   -141458.18   -3713.8553 
  992700    783.75354    -144699.7            0   -141457.94   -3746.9663 
  992800    778.07882   -144675.77            0   -141457.48   -3906.9344 
  992900    784.39679   -144701.59            0   -141457.17   -3747.7699 
  993000    781.73261   -144690.27            0   -141456.87   -3920.3429 
  993100    788.08181   -144716.28            0   -141456.62   -3447.1728 
  993200    779.56642   -144680.66            0   -141456.23     -4029.35 
  993300    784.19202   -144699.31            0   -141455.74   -3898.3766 
  993400    784.67302   -144700.94            0   -141455.38   -3685.0263 
  993500    780.10632   -144681.51            0   -141454.83    -3796.509 
  993600    783.72076   -144696.09            0   -141454.46   -3553.3211 
  993700    778.94201   -144675.99            0   -141454.14   -4053.4457 
  993800    786.57771   -144707.11            0   -141453.67   -3651.5947 
  993900    784.85028   -144699.52            0   -141453.23   -3924.3725 
  994000    781.93029   -144687.06            0   -141452.85   -3888.9591 
  994100    782.72347   -144690.03            0   -141452.54    -3582.265 
  994200    786.63079   -144705.83            0   -141452.17   -3962.5497 
  994300    782.80021   -144689.37            0   -141451.55   -3640.1974 
  994400    782.88686   -144689.36            0   -141451.18   -3996.1559 
  994500     782.3818   -144686.89            0    -141450.8   -3662.3581 
  994600    782.66668   -144687.79            0   -141450.53   -3672.6511 
  994700    780.96645   -144680.31            0   -141450.08   -3982.7557 
  994800    786.18127   -144701.34            0   -141449.54   -3627.8497 
  994900    784.88071   -144695.51            0   -141449.09   -3910.9927 
  995000    783.19103   -144688.13            0   -141448.69   -3485.5434 
  995100    778.45633   -144668.14            0   -141448.29    -3777.631 
  995200    787.09825   -144703.39            0    -141447.8   -3500.4995 
  995300    779.52903    -144671.7            0   -141447.42   -3692.5549 
  995400    785.60785   -144696.57            0   -141447.14   -3769.8815 
  995500     789.7584   -144713.26            0   -141446.67   -3415.3442 
  995600    782.34926   -144682.26            0   -141446.31   -3515.0609 
  995700     785.7957   -144696.04            0   -141445.84   -3713.2127 
  995800    783.56782   -144686.51            0   -141445.52    -3594.378 
  995900    781.45869   -144677.57            0    -141445.3   -3414.6877 
  996000    782.80645   -144682.85            0   -141445.01   -3711.6986 
  996100    784.00809   -144687.47            0   -141444.66   -3353.1781 
  996200    783.79297   -144686.09            0   -141444.17   -3715.3832 
  996300    782.38929   -144679.97            0   -141443.85      -3622.2 
  996400    785.37259   -144691.97            0   -141443.52   -3680.3266 
  996500    786.37535   -144695.63            0   -141443.03   -3636.7736 
  996600    786.45367   -144695.53            0    -141442.6   -3583.5703 
  996700    785.80032   -144692.44            0   -141442.21   -3574.7683 
  996800    778.98822   -144663.79            0   -141441.74   -3659.7184 
  996900    783.26425   -144681.08            0   -141441.34   -3541.8115 
  997000    784.86413   -144687.38            0   -141441.02     -3751.31 
  997100    786.30285   -144693.19            0   -141440.89   -3606.3652 
  997200    784.62433   -144685.86            0    -141440.5    -3446.859 
  997300    781.96283   -144674.52            0   -141440.17   -3748.4801 
  997400    783.72197   -144681.38            0   -141439.75   -3704.5458 
  997500    790.10405   -144707.48            0   -141439.46   -3368.7696 
  997600    780.04604   -144665.47            0   -141439.05   -3991.8437 
  997700    783.56617   -144679.69            0   -141438.71   -3781.4518 
  997800    787.79942    -144696.8            0   -141438.31   -3690.6512 
  997900    787.54462   -144695.41            0   -141437.97   -3764.9441 
  998000    781.56806   -144670.35            0   -141437.63   -3541.0583 
  998100    782.54539    -144674.2            0   -141437.44   -4099.8847 
  998200    782.82553   -144674.91            0      -141437   -3457.6611 
  998300    788.77099   -144699.23            0   -141436.72   -3564.7535 
  998400    785.53984    -144685.5            0   -141436.36   -3694.2778 
  998500    782.36302   -144671.87            0   -141435.87   -3759.5248 
  998600    785.40208   -144684.16            0   -141435.58   -3673.4777 
  998700     786.0854   -144686.63            0   -141435.22   -3719.7966 
  998800    779.66358   -144659.59            0   -141434.75    -3740.734 
  998900    786.80268   -144688.78            0   -141434.41   -3597.4933 
  999000    777.71704   -144650.73            0   -141433.94   -3924.7775 
  999100    785.89819   -144684.18            0   -141433.55   -3473.8417 
  999200    787.30992   -144689.71            0   -141433.24   -3688.2215 
  999300    780.79721   -144662.47            0   -141432.94   -3992.6858 
  999400    790.08891   -144700.38            0   -141432.42   -3615.7482 
  999500    789.86042   -144698.96            0   -141431.95   -3484.5727 
  999600    783.15742   -144670.84            0   -141431.55   -3795.7107 
  999700    782.84342   -144669.14            0   -141431.15   -3843.2606 
  999800    786.21152   -144682.68            0   -141430.75    -3406.788 
  999900    784.67361   -144675.99            0   -141430.42   -3784.2848 
 1000000    791.54393   -144703.91            0   -141429.93   -3738.1682 
Loop time of 1052.39 on 44 procs for 1000000 steps with 32000 atoms

Performance: 82.099 ns/day, 0.292 hours/ns, 950.221 timesteps/s
98.6% CPU use with 44 MPI tasks x 1 OpenMP threads

MPI task timing breakdown:
Section |  min time  |  avg time  |  max time  |%varavg| %total
---------------------------------------------------------------
Pair    | 802.76     | 809.16     | 826.73     |  16.9 | 76.89
Neigh   | 46.68      | 47.272     | 49.054     |   8.7 |  4.49
Comm    | 105.77     | 126.93     | 159.09     | 144.9 | 12.06
Output  | 0.63852    | 1.0907     | 1.6055     |  23.9 |  0.10
Modify  | 3.2822     | 3.3589     | 3.4932     |   2.6 |  0.32
Other   |            | 64.58      |            |       |  6.14

Nlocal:    727.273 ave 775 max 697 min
Histogram: 11 5 4 5 2 2 8 1 4 2
Nghost:    1321.84 ave 1358 max 1275 min
Histogram: 1 5 4 7 2 4 4 5 5 7
Neighs:    0 ave 0 max 0 min
Histogram: 44 0 0 0 0 0 0 0 0 0
FullNghs:  12058.3 ave 12894 max 11524 min
Histogram: 10 6 5 5 1 4 5 3 3 2

Total # of neighbors = 530564
Ave neighs/atom = 16.5801
Neighbor list builds = 36626
Dangerous builds = 0
Total wall time: 0:17:32
